s 1.000000000 _37_ AGT  --- 0 tcp 40 [0 0 0 0] ------- [37:1 0:3 32 0] [0 0] 0 0
r 1.000000000 _37_ RTR  --- 0 tcp 40 [0 0 0 0] ------- [37:1 0:3 32 0] [0 0] 0 0
s 1.000000000 _31_ AGT  --- 1 tcp 40 [0 0 0 0] ------- [31:0 0:6 32 0] [0 0] 0 0
r 1.000000000 _31_ RTR  --- 1 tcp 40 [0 0 0 0] ------- [31:0 0:6 32 0] [0 0] 0 0
s 1.000000000 _37_ RTR  --- 0 AODV 48 [0 0 0 0] ------- [37:255 -1:255 30 0] [0x2 1 1 [0 0] [37 4]] (REQUEST)
s 1.000000000 _31_ RTR  --- 0 AODV 48 [0 0 0 0] ------- [31:255 -1:255 30 0] [0x2 1 1 [0 0] [31 4]] (REQUEST)
r 1.001148684 _38_ RTR  --- 0 AODV 48 [0 ffffffff 1f 800] ------- [31:255 -1:255 30 0] [0x2 1 1 [0 0] [31 4]] (REQUEST)
r 1.002531764 _7_ RTR  --- 0 AODV 48 [0 ffffffff 25 800] ------- [37:255 -1:255 30 0] [0x2 1 1 [0 0] [37 4]] (REQUEST)
r 1.002532169 _12_ RTR  --- 0 AODV 48 [0 ffffffff 25 800] ------- [37:255 -1:255 30 0] [0x2 1 1 [0 0] [37 4]] (REQUEST)
r 1.002532274 _20_ RTR  --- 0 AODV 48 [0 ffffffff 25 800] ------- [37:255 -1:255 30 0] [0x2 1 1 [0 0] [37 4]] (REQUEST)
r 1.002532431 _4_ RTR  --- 0 AODV 48 [0 ffffffff 25 800] ------- [37:255 -1:255 30 0] [0x2 1 1 [0 0] [37 4]] (REQUEST)
r 1.002532451 _14_ RTR  --- 0 AODV 48 [0 ffffffff 25 800] ------- [37:255 -1:255 30 0] [0x2 1 1 [0 0] [37 4]] (REQUEST)
r 1.002532485 _36_ RTR  --- 0 AODV 48 [0 ffffffff 25 800] ------- [37:255 -1:255 30 0] [0x2 1 1 [0 0] [37 4]] (REQUEST)
s 1.004704046 _14_ RTR  --- 0 AODV 48 [0 ffffffff 25 800] ------- [14:255 -1:255 29 0] [0x2 2 1 [0 0] [37 4]] (REQUEST)
s 1.004944741 _36_ RTR  --- 0 AODV 48 [0 ffffffff 25 800] ------- [36:255 -1:255 29 0] [0x2 2 1 [0 0] [37 4]] (REQUEST)
s 1.005235541 _38_ RTR  --- 0 AODV 48 [0 ffffffff 1f 800] ------- [38:255 -1:255 29 0] [0x2 2 1 [0 0] [31 4]] (REQUEST)
r 1.005692259 _4_ RTR  --- 0 AODV 48 [0 ffffffff e 800] ------- [14:255 -1:255 29 0] [0x2 2 1 [0 0] [37 4]] (REQUEST)
r 1.005692636 _16_ RTR  --- 0 AODV 48 [0 ffffffff e 800] ------- [14:255 -1:255 29 0] [0x2 2 1 [0 0] [37 4]] (REQUEST)
r 1.005692642 _36_ RTR  --- 0 AODV 48 [0 ffffffff e 800] ------- [14:255 -1:255 29 0] [0x2 2 1 [0 0] [37 4]] (REQUEST)
r 1.005692770 _7_ RTR  --- 0 AODV 48 [0 ffffffff e 800] ------- [14:255 -1:255 29 0] [0x2 2 1 [0 0] [37 4]] (REQUEST)
r 1.005692817 _37_ RTR  --- 0 AODV 48 [0 ffffffff e 800] ------- [14:255 -1:255 29 0] [0x2 2 1 [0 0] [37 4]] (REQUEST)
r 1.006544225 _31_ RTR  --- 0 AODV 48 [0 ffffffff 26 800] ------- [38:255 -1:255 29 0] [0x2 2 1 [0 0] [31 4]] (REQUEST)
r 1.006891238 _14_ RTR  --- 0 AODV 48 [0 ffffffff 24 800] ------- [36:255 -1:255 29 0] [0x2 2 1 [0 0] [37 4]] (REQUEST)
s 1.007192924 _7_ RTR  --- 0 AODV 48 [0 ffffffff 25 800] ------- [7:255 -1:255 29 0] [0x2 2 1 [0 0] [37 4]] (REQUEST)
r 1.008253448 _37_ RTR  --- 0 AODV 48 [0 ffffffff 7 800] ------- [7:255 -1:255 29 0] [0x2 2 1 [0 0] [37 4]] (REQUEST)
r 1.008253889 _12_ RTR  --- 0 AODV 48 [0 ffffffff 7 800] ------- [7:255 -1:255 29 0] [0x2 2 1 [0 0] [37 4]] (REQUEST)
r 1.008253945 _20_ RTR  --- 0 AODV 48 [0 ffffffff 7 800] ------- [7:255 -1:255 29 0] [0x2 2 1 [0 0] [37 4]] (REQUEST)
r 1.008254085 _36_ RTR  --- 0 AODV 48 [0 ffffffff 7 800] ------- [7:255 -1:255 29 0] [0x2 2 1 [0 0] [37 4]] (REQUEST)
r 1.008254088 _14_ RTR  --- 0 AODV 48 [0 ffffffff 7 800] ------- [7:255 -1:255 29 0] [0x2 2 1 [0 0] [37 4]] (REQUEST)
r 1.008254089 _4_ RTR  --- 0 AODV 48 [0 ffffffff 7 800] ------- [7:255 -1:255 29 0] [0x2 2 1 [0 0] [37 4]] (REQUEST)
s 1.009455238 _12_ RTR  --- 0 AODV 48 [0 ffffffff 25 800] ------- [12:255 -1:255 29 0] [0x2 2 1 [0 0] [37 4]] (REQUEST)
s 1.009747827 _16_ RTR  --- 0 AODV 48 [0 ffffffff e 800] ------- [16:255 -1:255 28 0] [0x2 3 1 [0 0] [37 4]] (REQUEST)
r 1.010623564 _20_ RTR  --- 0 AODV 48 [0 ffffffff c 800] ------- [12:255 -1:255 29 0] [0x2 2 1 [0 0] [37 4]] (REQUEST)
r 1.010623727 _37_ RTR  --- 0 AODV 48 [0 ffffffff c 800] ------- [12:255 -1:255 29 0] [0x2 2 1 [0 0] [37 4]] (REQUEST)
r 1.010623762 _7_ RTR  --- 0 AODV 48 [0 ffffffff c 800] ------- [12:255 -1:255 29 0] [0x2 2 1 [0 0] [37 4]] (REQUEST)
r 1.010623841 _18_ RTR  --- 0 AODV 48 [0 ffffffff c 800] ------- [12:255 -1:255 29 0] [0x2 2 1 [0 0] [37 4]] (REQUEST)
r 1.010896571 _0_ RTR  --- 0 AODV 48 [0 ffffffff 10 800] ------- [16:255 -1:255 28 0] [0x2 3 1 [0 0] [37 4]] (REQUEST)
s 1.010896571 _0_ RTR  --- 0 AODV 44 [0 0 0 0] ------- [0:255 37:255 30 16] [0x4 1 [0 4] 10.000000] (REPLY)
s 1.010930683 _4_ RTR  --- 0 AODV 48 [0 ffffffff 25 800] ------- [4:255 -1:255 29 0] [0x2 2 1 [0 0] [37 4]] (REQUEST)
s 1.011152947 _20_ RTR  --- 0 AODV 48 [0 ffffffff 25 800] ------- [20:255 -1:255 29 0] [0x2 2 1 [0 0] [37 4]] (REQUEST)
s 1.011207868 _18_ RTR  --- 0 AODV 48 [0 ffffffff c 800] ------- [18:255 -1:255 28 0] [0x2 3 1 [0 0] [37 4]] (REQUEST)
r 1.012336472 _12_ RTR  --- 0 AODV 48 [0 ffffffff 12 800] ------- [18:255 -1:255 28 0] [0x2 3 1 [0 0] [37 4]] (REQUEST)
r 1.012336569 _20_ RTR  --- 0 AODV 48 [0 ffffffff 12 800] ------- [18:255 -1:255 28 0] [0x2 3 1 [0 0] [37 4]] (REQUEST)
r 1.013354896 _12_ RTR  --- 0 AODV 48 [0 ffffffff 14 800] ------- [20:255 -1:255 29 0] [0x2 2 1 [0 0] [37 4]] (REQUEST)
r 1.013355150 _7_ RTR  --- 0 AODV 48 [0 ffffffff 14 800] ------- [20:255 -1:255 29 0] [0x2 2 1 [0 0] [37 4]] (REQUEST)
r 1.013355163 _37_ RTR  --- 0 AODV 48 [0 ffffffff 14 800] ------- [20:255 -1:255 29 0] [0x2 2 1 [0 0] [37 4]] (REQUEST)
r 1.013355179 _2_ RTR  --- 0 AODV 48 [0 ffffffff 14 800] ------- [20:255 -1:255 29 0] [0x2 2 1 [0 0] [37 4]] (REQUEST)
r 1.013355270 _18_ RTR  --- 0 AODV 48 [0 ffffffff 14 800] ------- [20:255 -1:255 29 0] [0x2 2 1 [0 0] [37 4]] (REQUEST)
s 1.015973421 _2_ RTR  --- 0 AODV 48 [0 ffffffff 14 800] ------- [2:255 -1:255 28 0] [0x2 3 1 [0 0] [37 4]] (REQUEST)
r 1.017002019 _21_ RTR  --- 0 AODV 48 [0 ffffffff 2 800] ------- [2:255 -1:255 28 0] [0x2 3 1 [0 0] [37 4]] (REQUEST)
r 1.017002194 _1_ RTR  --- 0 AODV 48 [0 ffffffff 2 800] ------- [2:255 -1:255 28 0] [0x2 3 1 [0 0] [37 4]] (REQUEST)
r 1.017194857 _16_ RTR  --- 0 AODV 44 [13a 10 0 800] ------- [0:255 37:255 30 16] [0x4 1 [0 4] 10.000000] (REPLY)
f 1.017194857 _16_ RTR  --- 0 AODV 44 [13a 10 0 800] ------- [0:255 37:255 29 14] [0x4 2 [0 4] 10.000000] (REPLY)
s 1.018864161 _21_ RTR  --- 0 AODV 48 [0 ffffffff 2 800] ------- [21:255 -1:255 27 0] [0x2 4 1 [0 0] [37 4]] (REQUEST)
r 1.020292740 _8_ RTR  --- 0 AODV 48 [0 ffffffff 15 800] ------- [21:255 -1:255 27 0] [0x2 4 1 [0 0] [37 4]] (REQUEST)
r 1.020292766 _33_ RTR  --- 0 AODV 48 [0 ffffffff 15 800] ------- [21:255 -1:255 27 0] [0x2 4 1 [0 0] [37 4]] (REQUEST)
s 1.021206309 _8_ RTR  --- 0 AODV 48 [0 ffffffff 15 800] ------- [8:255 -1:255 26 0] [0x2 5 1 [0 0] [37 4]] (REQUEST)
r 1.021885990 _14_ RTR  --- 0 AODV 44 [13a e 10 800] ------- [0:255 37:255 29 14] [0x4 2 [0 4] 10.000000] (REPLY)
f 1.021885990 _14_ RTR  --- 0 AODV 44 [13a e 10 800] ------- [0:255 37:255 28 37] [0x4 3 [0 4] 10.000000] (REPLY)
r 1.022614888 _21_ RTR  --- 0 AODV 48 [0 ffffffff 8 800] ------- [8:255 -1:255 26 0] [0x2 5 1 [0 0] [37 4]] (REQUEST)
r 1.022614903 _33_ RTR  --- 0 AODV 48 [0 ffffffff 8 800] ------- [8:255 -1:255 26 0] [0x2 5 1 [0 0] [37 4]] (REQUEST)
r 1.023198416 _14_ RTR  --- 0 AODV 48 [0 ffffffff 4 800] ------- [4:255 -1:255 29 0] [0x2 2 1 [0 0] [37 4]] (REQUEST)
r 1.023198828 _16_ RTR  --- 0 AODV 48 [0 ffffffff 4 800] ------- [4:255 -1:255 29 0] [0x2 2 1 [0 0] [37 4]] (REQUEST)
r 1.023198928 _7_ RTR  --- 0 AODV 48 [0 ffffffff 4 800] ------- [4:255 -1:255 29 0] [0x2 2 1 [0 0] [37 4]] (REQUEST)
r 1.023198954 _37_ RTR  --- 0 AODV 48 [0 ffffffff 4 800] ------- [4:255 -1:255 29 0] [0x2 2 1 [0 0] [37 4]] (REQUEST)
r 1.023198987 _36_ RTR  --- 0 AODV 48 [0 ffffffff 4 800] ------- [4:255 -1:255 29 0] [0x2 2 1 [0 0] [37 4]] (REQUEST)
s 1.024852065 _1_ RTR  --- 0 AODV 48 [0 ffffffff 2 800] ------- [1:255 -1:255 27 0] [0x2 4 1 [0 0] [37 4]] (REQUEST)
s 1.025209983 _33_ RTR  --- 0 AODV 48 [0 ffffffff 15 800] ------- [33:255 -1:255 26 0] [0x2 5 1 [0 0] [37 4]] (REQUEST)
r 1.026498577 _8_ RTR  --- 0 AODV 48 [0 ffffffff 21 800] ------- [33:255 -1:255 26 0] [0x2 5 1 [0 0] [37 4]] (REQUEST)
r 1.026498588 _21_ RTR  --- 0 AODV 48 [0 ffffffff 21 800] ------- [33:255 -1:255 26 0] [0x2 5 1 [0 0] [37 4]] (REQUEST)
r 1.026498749 _11_ RTR  --- 0 AODV 48 [0 ffffffff 21 800] ------- [33:255 -1:255 26 0] [0x2 5 1 [0 0] [37 4]] (REQUEST)
r 1.027496816 _37_ RTR  --- 0 AODV 44 [13a 25 e 800] ------- [0:255 37:255 28 37] [0x4 3 [0 4] 10.000000] (REPLY)
s 1.027496816 _37_ RTR  --- 0 tcp 40 [0 0 0 0] ------- [37:1 0:3 30 14] [0 0] 0 0
r 1.029135008 _33_ RTR  --- 0 AODV 48 [0 ffffffff 1 800] ------- [1:255 -1:255 27 0] [0x2 4 1 [0 0] [37 4]] (REQUEST)
r 1.029135032 _11_ RTR  --- 0 AODV 48 [0 ffffffff 1 800] ------- [1:255 -1:255 27 0] [0x2 4 1 [0 0] [37 4]] (REQUEST)
r 1.029135113 _2_ RTR  --- 0 AODV 48 [0 ffffffff 1 800] ------- [1:255 -1:255 27 0] [0x2 4 1 [0 0] [37 4]] (REQUEST)
r 1.031152178 _14_ RTR  --- 0 tcp 40 [13a e 25 800] ------- [37:1 0:3 30 14] [0 0] 1 0
f 1.031152178 _14_ RTR  --- 0 tcp 40 [13a e 25 800] ------- [37:1 0:3 29 16] [0 0] 1 0
r 1.032997949 _16_ RTR  --- 0 tcp 40 [13a 10 e 800] ------- [37:1 0:3 29 16] [0 0] 2 0
f 1.032997949 _16_ RTR  --- 0 tcp 40 [13a 10 e 800] ------- [37:1 0:3 28 0] [0 0] 2 0
s 1.033857154 _11_ RTR  --- 0 AODV 48 [0 ffffffff 21 800] ------- [11:255 -1:255 25 0] [0x2 6 1 [0 0] [37 4]] (REQUEST)
r 1.035105384 _24_ RTR  --- 0 AODV 48 [0 ffffffff b 800] ------- [11:255 -1:255 25 0] [0x2 6 1 [0 0] [37 4]] (REQUEST)
r 1.035105846 _1_ RTR  --- 0 AODV 48 [0 ffffffff b 800] ------- [11:255 -1:255 25 0] [0x2 6 1 [0 0] [37 4]] (REQUEST)
r 1.035105920 _33_ RTR  --- 0 AODV 48 [0 ffffffff b 800] ------- [11:255 -1:255 25 0] [0x2 6 1 [0 0] [37 4]] (REQUEST)
r 1.035264179 _0_ AGT  --- 0 tcp 40 [13a 0 10 800] ------- [37:1 0:3 28 0] [0 0] 3 0
s 1.035264179 _0_ AGT  --- 2 ack 40 [0 0 0 0] ------- [0:3 37:1 32 0] [0 0] 0 0
r 1.035264179 _0_ RTR  --- 2 ack 40 [0 0 0 0] ------- [0:3 37:1 32 0] [0 0] 0 0
s 1.035264179 _0_ RTR  --- 2 ack 40 [0 0 0 0] ------- [0:3 37:1 30 16] [0 0] 0 0
r 1.037430410 _16_ RTR  --- 2 ack 40 [13a 10 0 800] ------- [0:3 37:1 30 16] [0 0] 1 0
f 1.037430410 _16_ RTR  --- 2 ack 40 [13a 10 0 800] ------- [0:3 37:1 29 14] [0 0] 1 0
s 1.039169160 _24_ RTR  --- 0 AODV 48 [0 ffffffff b 800] ------- [24:255 -1:255 24 0] [0x2 7 1 [0 0] [37 4]] (REQUEST)
r 1.039836181 _14_ RTR  --- 2 ack 40 [13a e 10 800] ------- [0:3 37:1 29 14] [0 0] 2 0
f 1.039836181 _14_ RTR  --- 2 ack 40 [13a e 10 800] ------- [0:3 37:1 28 37] [0 0] 2 0
r 1.040297390 _11_ RTR  --- 0 AODV 48 [0 ffffffff 18 800] ------- [24:255 -1:255 24 0] [0x2 7 1 [0 0] [37 4]] (REQUEST)
r 1.041822495 _37_ AGT  --- 2 ack 40 [13a 25 e 800] ------- [0:3 37:1 28 37] [0 0] 3 0
s 1.041822495 _37_ AGT  --- 3 tcp 1040 [0 0 0 0] ------- [37:1 0:3 32 0] [1 0] 0 0
r 1.041822495 _37_ RTR  --- 3 tcp 1040 [0 0 0 0] ------- [37:1 0:3 32 0] [1 0] 0 0
s 1.041822495 _37_ AGT  --- 4 tcp 1040 [0 0 0 0] ------- [37:1 0:3 32 0] [2 0] 0 0
r 1.041822495 _37_ RTR  --- 4 tcp 1040 [0 0 0 0] ------- [37:1 0:3 32 0] [2 0] 0 0
s 1.041822495 _37_ RTR  --- 3 tcp 1040 [0 0 0 0] ------- [37:1 0:3 30 14] [1 0] 0 0
s 1.041822495 _37_ RTR  --- 4 tcp 1040 [0 0 0 0] ------- [37:1 0:3 30 14] [2 0] 0 0
r 1.051768809 _14_ RTR  --- 3 tcp 1040 [13a e 25 800] ------- [37:1 0:3 30 14] [1 0] 1 0
f 1.051768809 _14_ RTR  --- 3 tcp 1040 [13a e 25 800] ------- [37:1 0:3 29 16] [1 0] 1 0
r 1.061654580 _16_ RTR  --- 3 tcp 1040 [13a 10 e 800] ------- [37:1 0:3 29 16] [1 0] 2 0
f 1.061654580 _16_ RTR  --- 3 tcp 1040 [13a 10 e 800] ------- [37:1 0:3 28 0] [1 0] 2 0
r 1.071780811 _0_ AGT  --- 3 tcp 1040 [13a 0 10 800] ------- [37:1 0:3 28 0] [1 0] 3 0
s 1.071780811 _0_ AGT  --- 5 ack 40 [0 0 0 0] ------- [0:3 37:1 32 0] [1 0] 0 0
r 1.071780811 _0_ RTR  --- 5 ack 40 [0 0 0 0] ------- [0:3 37:1 32 0] [1 0] 0 0
s 1.071780811 _0_ RTR  --- 5 ack 40 [0 0 0 0] ------- [0:3 37:1 30 16] [1 0] 0 0
r 1.106036819 _14_ RTR  --- 4 tcp 1040 [13a e 25 800] ------- [37:1 0:3 30 14] [2 0] 1 0
f 1.106036819 _14_ RTR  --- 4 tcp 1040 [13a e 25 800] ------- [37:1 0:3 29 16] [2 0] 1 0
r 1.115922590 _16_ RTR  --- 4 tcp 1040 [13a 10 e 800] ------- [37:1 0:3 29 16] [2 0] 2 0
f 1.115922590 _16_ RTR  --- 4 tcp 1040 [13a 10 e 800] ------- [37:1 0:3 28 0] [2 0] 2 0
r 1.126348820 _0_ AGT  --- 4 tcp 1040 [13a 0 10 800] ------- [37:1 0:3 28 0] [2 0] 3 0
s 1.126348820 _0_ AGT  --- 6 ack 40 [0 0 0 0] ------- [0:3 37:1 32 0] [2 0] 0 0
r 1.126348820 _0_ RTR  --- 6 ack 40 [0 0 0 0] ------- [0:3 37:1 32 0] [2 0] 0 0
s 1.126348820 _0_ RTR  --- 6 ack 40 [0 0 0 0] ------- [0:3 37:1 30 16] [2 0] 0 0
r 1.132295050 _16_ RTR  --- 5 ack 40 [13a 10 0 800] ------- [0:3 37:1 30 16] [1 0] 1 0
f 1.132295050 _16_ RTR  --- 5 ack 40 [13a 10 0 800] ------- [0:3 37:1 29 14] [1 0] 1 0
r 1.134140821 _14_ RTR  --- 5 ack 40 [13a e 10 800] ------- [0:3 37:1 29 14] [1 0] 2 0
f 1.134140821 _14_ RTR  --- 5 ack 40 [13a e 10 800] ------- [0:3 37:1 28 37] [1 0] 2 0
r 1.136227136 _37_ AGT  --- 5 ack 40 [13a 25 e 800] ------- [0:3 37:1 28 37] [1 0] 3 0
s 1.136227136 _37_ AGT  --- 7 tcp 1040 [0 0 0 0] ------- [37:1 0:3 32 0] [3 0] 0 0
r 1.136227136 _37_ RTR  --- 7 tcp 1040 [0 0 0 0] ------- [37:1 0:3 32 0] [3 0] 0 0
s 1.136227136 _37_ AGT  --- 8 tcp 1040 [0 0 0 0] ------- [37:1 0:3 32 0] [4 0] 0 0
r 1.136227136 _37_ RTR  --- 8 tcp 1040 [0 0 0 0] ------- [37:1 0:3 32 0] [4 0] 0 0
s 1.136227136 _37_ RTR  --- 7 tcp 1040 [0 0 0 0] ------- [37:1 0:3 30 14] [3 0] 0 0
s 1.136227136 _37_ RTR  --- 8 tcp 1040 [0 0 0 0] ------- [37:1 0:3 30 14] [4 0] 0 0
r 1.141583745 _16_ RTR  --- 6 ack 40 [13a 10 0 800] ------- [0:3 37:1 30 16] [2 0] 1 0
f 1.141583745 _16_ RTR  --- 6 ack 40 [13a 10 0 800] ------- [0:3 37:1 29 14] [2 0] 1 0
r 1.143589516 _14_ RTR  --- 6 ack 40 [13a e 10 800] ------- [0:3 37:1 29 14] [2 0] 2 0
f 1.143589516 _14_ RTR  --- 6 ack 40 [13a e 10 800] ------- [0:3 37:1 28 37] [2 0] 2 0
r 1.153486592 _14_ RTR  --- 7 tcp 1040 [13a e 25 800] ------- [37:1 0:3 30 14] [3 0] 1 0
f 1.153486592 _14_ RTR  --- 7 tcp 1040 [13a e 25 800] ------- [37:1 0:3 29 16] [3 0] 1 0
r 1.155432906 _37_ AGT  --- 6 ack 40 [13a 25 e 800] ------- [0:3 37:1 28 37] [2 0] 3 0
s 1.155432906 _37_ AGT  --- 9 tcp 1040 [0 0 0 0] ------- [37:1 0:3 32 0] [5 0] 0 0
r 1.155432906 _37_ RTR  --- 9 tcp 1040 [0 0 0 0] ------- [37:1 0:3 32 0] [5 0] 0 0
s 1.155432906 _37_ AGT  --- 10 tcp 1040 [0 0 0 0] ------- [37:1 0:3 32 0] [6 0] 0 0
r 1.155432906 _37_ RTR  --- 10 tcp 1040 [0 0 0 0] ------- [37:1 0:3 32 0] [6 0] 0 0
s 1.155432906 _37_ RTR  --- 9 tcp 1040 [0 0 0 0] ------- [37:1 0:3 30 14] [5 0] 0 0
s 1.155432906 _37_ RTR  --- 10 tcp 1040 [0 0 0 0] ------- [37:1 0:3 30 14] [6 0] 0 0
r 1.165259448 _16_ RTR  --- 7 tcp 1040 [13a 10 e 800] ------- [37:1 0:3 29 16] [3 0] 2 0
f 1.165259448 _16_ RTR  --- 7 tcp 1040 [13a 10 e 800] ------- [37:1 0:3 28 0] [3 0] 2 0
r 1.175105679 _0_ AGT  --- 7 tcp 1040 [13a 0 10 800] ------- [37:1 0:3 28 0] [3 0] 3 0
s 1.175105679 _0_ AGT  --- 11 ack 40 [0 0 0 0] ------- [0:3 37:1 32 0] [3 0] 0 0
r 1.175105679 _0_ RTR  --- 11 ack 40 [0 0 0 0] ------- [0:3 37:1 32 0] [3 0] 0 0
s 1.175105679 _0_ RTR  --- 11 ack 40 [0 0 0 0] ------- [0:3 37:1 30 16] [3 0] 0 0
r 1.181611909 _16_ RTR  --- 11 ack 40 [13a 10 0 800] ------- [0:3 37:1 30 16] [3 0] 1 0
f 1.181611909 _16_ RTR  --- 11 ack 40 [13a 10 0 800] ------- [0:3 37:1 29 14] [3 0] 1 0
r 1.183677680 _14_ RTR  --- 11 ack 40 [13a e 10 800] ------- [0:3 37:1 29 14] [3 0] 2 0
f 1.183677680 _14_ RTR  --- 11 ack 40 [13a e 10 800] ------- [0:3 37:1 28 37] [3 0] 2 0
r 1.185603995 _37_ AGT  --- 11 ack 40 [13a 25 e 800] ------- [0:3 37:1 28 37] [3 0] 3 0
s 1.185603995 _37_ AGT  --- 12 tcp 1040 [0 0 0 0] ------- [37:1 0:3 32 0] [7 0] 0 0
r 1.185603995 _37_ RTR  --- 12 tcp 1040 [0 0 0 0] ------- [37:1 0:3 32 0] [7 0] 0 0
s 1.185603995 _37_ AGT  --- 13 tcp 1040 [0 0 0 0] ------- [37:1 0:3 32 0] [8 0] 0 0
r 1.185603995 _37_ RTR  --- 13 tcp 1040 [0 0 0 0] ------- [37:1 0:3 32 0] [8 0] 0 0
s 1.185603995 _37_ RTR  --- 12 tcp 1040 [0 0 0 0] ------- [37:1 0:3 30 14] [7 0] 0 0
s 1.185603995 _37_ RTR  --- 13 tcp 1040 [0 0 0 0] ------- [37:1 0:3 30 14] [8 0] 0 0
r 1.197310309 _14_ RTR  --- 8 tcp 1040 [13a e 25 800] ------- [37:1 0:3 30 14] [4 0] 1 0
f 1.197310309 _14_ RTR  --- 8 tcp 1040 [13a e 25 800] ------- [37:1 0:3 29 16] [4 0] 1 0
r 1.207516080 _16_ RTR  --- 8 tcp 1040 [13a 10 e 800] ------- [37:1 0:3 29 16] [4 0] 2 0
f 1.207516080 _16_ RTR  --- 8 tcp 1040 [13a 10 e 800] ------- [37:1 0:3 28 0] [4 0] 2 0
r 1.217582310 _0_ AGT  --- 8 tcp 1040 [13a 0 10 800] ------- [37:1 0:3 28 0] [4 0] 3 0
s 1.217582310 _0_ AGT  --- 14 ack 40 [0 0 0 0] ------- [0:3 37:1 32 0] [4 0] 0 0
r 1.217582310 _0_ RTR  --- 14 ack 40 [0 0 0 0] ------- [0:3 37:1 32 0] [4 0] 0 0
s 1.217582310 _0_ RTR  --- 14 ack 40 [0 0 0 0] ------- [0:3 37:1 30 16] [4 0] 0 0
r 1.224828541 _16_ RTR  --- 14 ack 40 [13a 10 0 800] ------- [0:3 37:1 30 16] [4 0] 1 0
f 1.224828541 _16_ RTR  --- 14 ack 40 [13a 10 0 800] ------- [0:3 37:1 29 14] [4 0] 1 0
r 1.226694312 _14_ RTR  --- 14 ack 40 [13a e 10 800] ------- [0:3 37:1 29 14] [4 0] 2 0
f 1.226694312 _14_ RTR  --- 14 ack 40 [13a e 10 800] ------- [0:3 37:1 28 37] [4 0] 2 0
r 1.228880626 _37_ AGT  --- 14 ack 40 [13a 25 e 800] ------- [0:3 37:1 28 37] [4 0] 3 0
s 1.228880626 _37_ AGT  --- 15 tcp 1040 [0 0 0 0] ------- [37:1 0:3 32 0] [9 0] 0 0
r 1.228880626 _37_ RTR  --- 15 tcp 1040 [0 0 0 0] ------- [37:1 0:3 32 0] [9 0] 0 0
s 1.228880626 _37_ AGT  --- 16 tcp 1040 [0 0 0 0] ------- [37:1 0:3 32 0] [10 0] 0 0
r 1.228880626 _37_ RTR  --- 16 tcp 1040 [0 0 0 0] ------- [37:1 0:3 32 0] [10 0] 0 0
s 1.228880626 _37_ RTR  --- 15 tcp 1040 [0 0 0 0] ------- [37:1 0:3 30 14] [9 0] 0 0
s 1.228880626 _37_ RTR  --- 16 tcp 1040 [0 0 0 0] ------- [37:1 0:3 30 14] [10 0] 0 0
r 1.241486940 _14_ RTR  --- 9 tcp 1040 [13a e 25 800] ------- [37:1 0:3 30 14] [5 0] 1 0
f 1.241486940 _14_ RTR  --- 9 tcp 1040 [13a e 25 800] ------- [37:1 0:3 29 16] [5 0] 1 0
r 1.251614026 _14_ RTR  --- 10 tcp 1040 [13a e 25 800] ------- [37:1 0:3 30 14] [6 0] 1 0
f 1.251614026 _14_ RTR  --- 10 tcp 1040 [13a e 25 800] ------- [37:1 0:3 29 16] [6 0] 1 0
r 1.261699797 _16_ RTR  --- 9 tcp 1040 [13a 10 e 800] ------- [37:1 0:3 29 16] [5 0] 2 0
f 1.261699797 _16_ RTR  --- 9 tcp 1040 [13a 10 e 800] ------- [37:1 0:3 28 0] [5 0] 2 0
r 1.271846027 _0_ AGT  --- 9 tcp 1040 [13a 0 10 800] ------- [37:1 0:3 28 0] [5 0] 3 0
s 1.271846027 _0_ AGT  --- 17 ack 40 [0 0 0 0] ------- [0:3 37:1 32 0] [5 0] 0 0
r 1.271846027 _0_ RTR  --- 17 ack 40 [0 0 0 0] ------- [0:3 37:1 32 0] [5 0] 0 0
s 1.271846027 _0_ RTR  --- 17 ack 40 [0 0 0 0] ------- [0:3 37:1 30 16] [5 0] 0 0
r 1.282769178 _16_ RTR  --- 10 tcp 1040 [13a 10 e 800] ------- [37:1 0:3 29 16] [6 0] 2 0
f 1.282769178 _16_ RTR  --- 10 tcp 1040 [13a 10 e 800] ------- [37:1 0:3 28 0] [6 0] 2 0
r 1.292915408 _0_ AGT  --- 10 tcp 1040 [13a 0 10 800] ------- [37:1 0:3 28 0] [6 0] 3 0
s 1.292915408 _0_ AGT  --- 18 ack 40 [0 0 0 0] ------- [0:3 37:1 32 0] [6 0] 0 0
r 1.292915408 _0_ RTR  --- 18 ack 40 [0 0 0 0] ------- [0:3 37:1 32 0] [6 0] 0 0
s 1.292915408 _0_ RTR  --- 18 ack 40 [0 0 0 0] ------- [0:3 37:1 30 16] [6 0] 0 0
r 1.294761639 _16_ RTR  --- 17 ack 40 [13a 10 0 800] ------- [0:3 37:1 30 16] [5 0] 1 0
f 1.294761639 _16_ RTR  --- 17 ack 40 [13a 10 0 800] ------- [0:3 37:1 29 14] [5 0] 1 0
r 1.296908612 _16_ RTR  --- 18 ack 40 [13a 10 0 800] ------- [0:3 37:1 30 16] [6 0] 1 0
f 1.296908612 _16_ RTR  --- 18 ack 40 [13a 10 0 800] ------- [0:3 37:1 29 14] [6 0] 1 0
r 1.299277600 _14_ RTR  --- 17 ack 40 [13a e 10 800] ------- [0:3 37:1 29 14] [5 0] 2 0
f 1.299277600 _14_ RTR  --- 17 ack 40 [13a e 10 800] ------- [0:3 37:1 28 37] [5 0] 2 0
r 1.301243914 _37_ AGT  --- 17 ack 40 [13a 25 e 800] ------- [0:3 37:1 28 37] [5 0] 3 0
s 1.301243914 _37_ AGT  --- 19 tcp 1040 [0 0 0 0] ------- [37:1 0:3 32 0] [11 0] 0 0
r 1.301243914 _37_ RTR  --- 19 tcp 1040 [0 0 0 0] ------- [37:1 0:3 32 0] [11 0] 0 0
s 1.301243914 _37_ AGT  --- 20 tcp 1040 [0 0 0 0] ------- [37:1 0:3 32 0] [12 0] 0 0
r 1.301243914 _37_ RTR  --- 20 tcp 1040 [0 0 0 0] ------- [37:1 0:3 32 0] [12 0] 0 0
s 1.301243914 _37_ RTR  --- 19 tcp 1040 [0 0 0 0] ------- [37:1 0:3 30 14] [11 0] 0 0
s 1.301243914 _37_ RTR  --- 20 tcp 1040 [0 0 0 0] ------- [37:1 0:3 30 14] [12 0] 0 0
r 1.303715036 _14_ RTR  --- 18 ack 40 [13a e 10 800] ------- [0:3 37:1 29 14] [6 0] 2 0
f 1.303715036 _14_ RTR  --- 18 ack 40 [13a e 10 800] ------- [0:3 37:1 28 37] [6 0] 2 0
r 1.306001350 _37_ AGT  --- 18 ack 40 [13a 25 e 800] ------- [0:3 37:1 28 37] [6 0] 3 0
s 1.306001350 _37_ AGT  --- 21 tcp 1040 [0 0 0 0] ------- [37:1 0:3 32 0] [13 0] 0 0
r 1.306001350 _37_ RTR  --- 21 tcp 1040 [0 0 0 0] ------- [37:1 0:3 32 0] [13 0] 0 0
s 1.306001350 _37_ AGT  --- 22 tcp 1040 [0 0 0 0] ------- [37:1 0:3 32 0] [14 0] 0 0
r 1.306001350 _37_ RTR  --- 22 tcp 1040 [0 0 0 0] ------- [37:1 0:3 32 0] [14 0] 0 0
s 1.306001350 _37_ RTR  --- 21 tcp 1040 [0 0 0 0] ------- [37:1 0:3 30 14] [13 0] 0 0
s 1.306001350 _37_ RTR  --- 22 tcp 1040 [0 0 0 0] ------- [37:1 0:3 30 14] [14 0] 0 0
r 1.318807665 _14_ RTR  --- 12 tcp 1040 [13a e 25 800] ------- [37:1 0:3 30 14] [7 0] 1 0
f 1.318807665 _14_ RTR  --- 12 tcp 1040 [13a e 25 800] ------- [37:1 0:3 29 16] [7 0] 1 0
r 1.328713436 _16_ RTR  --- 12 tcp 1040 [13a 10 e 800] ------- [37:1 0:3 29 16] [7 0] 2 0
f 1.328713436 _16_ RTR  --- 12 tcp 1040 [13a 10 e 800] ------- [37:1 0:3 28 0] [7 0] 2 0
r 1.338999666 _0_ AGT  --- 12 tcp 1040 [13a 0 10 800] ------- [37:1 0:3 28 0] [7 0] 3 0
s 1.338999666 _0_ AGT  --- 23 ack 40 [0 0 0 0] ------- [0:3 37:1 32 0] [7 0] 0 0
r 1.338999666 _0_ RTR  --- 23 ack 40 [0 0 0 0] ------- [0:3 37:1 32 0] [7 0] 0 0
s 1.338999666 _0_ RTR  --- 23 ack 40 [0 0 0 0] ------- [0:3 37:1 30 16] [7 0] 0 0
r 1.341965897 _16_ RTR  --- 23 ack 40 [13a 10 0 800] ------- [0:3 37:1 30 16] [7 0] 1 0
f 1.341965897 _16_ RTR  --- 23 ack 40 [13a 10 0 800] ------- [0:3 37:1 29 14] [7 0] 1 0
r 1.344011668 _14_ RTR  --- 23 ack 40 [13a e 10 800] ------- [0:3 37:1 29 14] [7 0] 2 0
f 1.344011668 _14_ RTR  --- 23 ack 40 [13a e 10 800] ------- [0:3 37:1 28 37] [7 0] 2 0
r 1.345877982 _37_ AGT  --- 23 ack 40 [13a 25 e 800] ------- [0:3 37:1 28 37] [7 0] 3 0
s 1.345877982 _37_ AGT  --- 24 tcp 1040 [0 0 0 0] ------- [37:1 0:3 32 0] [15 0] 0 0
r 1.345877982 _37_ RTR  --- 24 tcp 1040 [0 0 0 0] ------- [37:1 0:3 32 0] [15 0] 0 0
s 1.345877982 _37_ AGT  --- 25 tcp 1040 [0 0 0 0] ------- [37:1 0:3 32 0] [16 0] 0 0
r 1.345877982 _37_ RTR  --- 25 tcp 1040 [0 0 0 0] ------- [37:1 0:3 32 0] [16 0] 0 0
s 1.345877982 _37_ RTR  --- 24 tcp 1040 [0 0 0 0] ------- [37:1 0:3 30 14] [15 0] 0 0
s 1.345877982 _37_ RTR  --- 25 tcp 1040 [0 0 0 0] ------- [37:1 0:3 30 14] [16 0] 0 0
r 1.356124296 _14_ RTR  --- 13 tcp 1040 [13a e 25 800] ------- [37:1 0:3 30 14] [8 0] 1 0
f 1.356124296 _14_ RTR  --- 13 tcp 1040 [13a e 25 800] ------- [37:1 0:3 29 16] [8 0] 1 0
r 1.367357610 _16_ RTR  --- 13 tcp 1040 [13a 10 e 800] ------- [37:1 0:3 29 16] [8 0] 2 0
f 1.367357610 _16_ RTR  --- 13 tcp 1040 [13a 10 e 800] ------- [37:1 0:3 28 0] [8 0] 2 0
r 1.377463840 _0_ AGT  --- 13 tcp 1040 [13a 0 10 800] ------- [37:1 0:3 28 0] [8 0] 3 0
s 1.377463840 _0_ AGT  --- 26 ack 40 [0 0 0 0] ------- [0:3 37:1 32 0] [8 0] 0 0
r 1.377463840 _0_ RTR  --- 26 ack 40 [0 0 0 0] ------- [0:3 37:1 32 0] [8 0] 0 0
s 1.377463840 _0_ RTR  --- 26 ack 40 [0 0 0 0] ------- [0:3 37:1 30 16] [8 0] 0 0
r 1.379550071 _16_ RTR  --- 26 ack 40 [13a 10 0 800] ------- [0:3 37:1 30 16] [8 0] 1 0
f 1.379550071 _16_ RTR  --- 26 ack 40 [13a 10 0 800] ------- [0:3 37:1 29 14] [8 0] 1 0
r 1.381579058 _14_ RTR  --- 26 ack 40 [13a e 10 800] ------- [0:3 37:1 29 14] [8 0] 2 0
f 1.381579058 _14_ RTR  --- 26 ack 40 [13a e 10 800] ------- [0:3 37:1 28 37] [8 0] 2 0
r 1.383745372 _37_ AGT  --- 26 ack 40 [13a 25 e 800] ------- [0:3 37:1 28 37] [8 0] 3 0
s 1.383745372 _37_ AGT  --- 27 tcp 1040 [0 0 0 0] ------- [37:1 0:3 32 0] [17 0] 0 0
r 1.383745372 _37_ RTR  --- 27 tcp 1040 [0 0 0 0] ------- [37:1 0:3 32 0] [17 0] 0 0
s 1.383745372 _37_ AGT  --- 28 tcp 1040 [0 0 0 0] ------- [37:1 0:3 32 0] [18 0] 0 0
r 1.383745372 _37_ RTR  --- 28 tcp 1040 [0 0 0 0] ------- [37:1 0:3 32 0] [18 0] 0 0
s 1.383745372 _37_ RTR  --- 27 tcp 1040 [0 0 0 0] ------- [37:1 0:3 30 14] [17 0] 0 0
s 1.383745372 _37_ RTR  --- 28 tcp 1040 [0 0 0 0] ------- [37:1 0:3 30 14] [18 0] 0 0
r 1.394891686 _14_ RTR  --- 15 tcp 1040 [13a e 25 800] ------- [37:1 0:3 30 14] [9 0] 1 0
f 1.394891686 _14_ RTR  --- 15 tcp 1040 [13a e 25 800] ------- [37:1 0:3 29 16] [9 0] 1 0
r 1.405077457 _16_ RTR  --- 15 tcp 1040 [13a 10 e 800] ------- [37:1 0:3 29 16] [9 0] 2 0
f 1.405077457 _16_ RTR  --- 15 tcp 1040 [13a 10 e 800] ------- [37:1 0:3 28 0] [9 0] 2 0
r 1.415363688 _0_ AGT  --- 15 tcp 1040 [13a 0 10 800] ------- [37:1 0:3 28 0] [9 0] 3 0
s 1.415363688 _0_ AGT  --- 29 ack 40 [0 0 0 0] ------- [0:3 37:1 32 0] [9 0] 0 0
r 1.415363688 _0_ RTR  --- 29 ack 40 [0 0 0 0] ------- [0:3 37:1 32 0] [9 0] 0 0
s 1.415363688 _0_ RTR  --- 29 ack 40 [0 0 0 0] ------- [0:3 37:1 30 16] [9 0] 0 0
D 1.448524304 _0_ RTR  CBK 29 ack 40 [13a 10 0 800] ------- [0:3 37:1 30 16] [9 0] 0 0
s 1.448524304 _0_ RTR  --- 0 AODV 32 [0 0 0 0] ------- [0:255 -1:255 1 0] [0x8 1 [37 0] 0.000000] (ERROR)
r 1.449924824 _19_ RTR  --- 0 AODV 32 [0 ffffffff 0 800] ------- [0:255 -1:255 1 0] [0x8 1 [37 0] 0.000000] (ERROR)
r 1.449924850 _6_ RTR  --- 0 AODV 32 [0 ffffffff 0 800] ------- [0:255 -1:255 1 0] [0x8 1 [37 0] 0.000000] (ERROR)
r 1.449925040 _17_ RTR  --- 0 AODV 32 [0 ffffffff 0 800] ------- [0:255 -1:255 1 0] [0x8 1 [37 0] 0.000000] (ERROR)
r 1.449925107 _5_ RTR  --- 0 AODV 32 [0 ffffffff 0 800] ------- [0:255 -1:255 1 0] [0x8 1 [37 0] 0.000000] (ERROR)
r 1.462029238 _14_ RTR  --- 16 tcp 1040 [13a e 25 800] ------- [37:1 0:3 30 14] [10 0] 1 0
f 1.462029238 _14_ RTR  --- 16 tcp 1040 [13a e 25 800] ------- [37:1 0:3 29 16] [10 0] 1 0
r 1.472076324 _14_ RTR  --- 19 tcp 1040 [13a e 25 800] ------- [37:1 0:3 30 14] [11 0] 1 0
f 1.472076324 _14_ RTR  --- 19 tcp 1040 [13a e 25 800] ------- [37:1 0:3 29 16] [11 0] 1 0
r 1.482202095 _16_ RTR  --- 16 tcp 1040 [13a 10 e 800] ------- [37:1 0:3 29 16] [10 0] 2 0
f 1.482202095 _16_ RTR  --- 16 tcp 1040 [13a 10 e 800] ------- [37:1 0:3 28 0] [10 0] 2 0
r 1.492248456 _16_ RTR  --- 19 tcp 1040 [13a 10 e 800] ------- [37:1 0:3 29 16] [11 0] 2 0
f 1.492248456 _16_ RTR  --- 19 tcp 1040 [13a 10 e 800] ------- [37:1 0:3 28 0] [11 0] 2 0
r 1.502434687 _0_ AGT  --- 16 tcp 1040 [13a 0 10 800] ------- [37:1 0:3 28 0] [10 0] 3 0
s 1.502434687 _0_ AGT  --- 30 ack 40 [0 0 0 0] ------- [0:3 37:1 32 0] [10 0] 0 0
r 1.502434687 _0_ RTR  --- 30 ack 40 [0 0 0 0] ------- [0:3 37:1 32 0] [10 0] 0 0
s 1.502434687 _0_ RTR  --- 0 AODV 48 [0 0 0 0] ------- [0:255 -1:255 5 0] [0x2 1 1 [37 5] [0 8]] (REQUEST)
r 1.503867208 _19_ RTR  --- 0 AODV 48 [0 ffffffff 0 800] ------- [0:255 -1:255 5 0] [0x2 1 1 [37 5] [0 8]] (REQUEST)
r 1.503867233 _6_ RTR  --- 0 AODV 48 [0 ffffffff 0 800] ------- [0:255 -1:255 5 0] [0x2 1 1 [37 5] [0 8]] (REQUEST)
r 1.503867423 _17_ RTR  --- 0 AODV 48 [0 ffffffff 0 800] ------- [0:255 -1:255 5 0] [0x2 1 1 [37 5] [0 8]] (REQUEST)
r 1.503867491 _5_ RTR  --- 0 AODV 48 [0 ffffffff 0 800] ------- [0:255 -1:255 5 0] [0x2 1 1 [37 5] [0 8]] (REQUEST)
s 1.508480184 _17_ RTR  --- 0 AODV 48 [0 ffffffff 0 800] ------- [17:255 -1:255 4 0] [0x2 2 1 [37 5] [0 8]] (REQUEST)
s 1.509068504 _5_ RTR  --- 0 AODV 48 [0 ffffffff 0 800] ------- [5:255 -1:255 4 0] [0x2 2 1 [37 5] [0 8]] (REQUEST)
s 1.510878310 _6_ RTR  --- 0 AODV 48 [0 ffffffff 0 800] ------- [6:255 -1:255 4 0] [0x2 2 1 [37 5] [0 8]] (REQUEST)
s 1.512280179 _19_ RTR  --- 0 AODV 48 [0 ffffffff 0 800] ------- [19:255 -1:255 4 0] [0x2 2 1 [37 5] [0 8]] (REQUEST)
r 1.514238877 _0_ AGT  --- 19 tcp 1040 [13a 0 10 800] ------- [37:1 0:3 28 0] [11 0] 3 0
s 1.514238877 _0_ AGT  --- 31 ack 40 [0 0 0 0] ------- [0:3 37:1 32 0] [11 0] 0 0
r 1.514238877 _0_ RTR  --- 31 ack 40 [0 0 0 0] ------- [0:3 37:1 32 0] [11 0] 0 0
r 1.515921930 _3_ RTR  --- 0 AODV 48 [0 ffffffff 5 800] ------- [5:255 -1:255 4 0] [0x2 2 1 [37 5] [0 8]] (REQUEST)
r 1.515922166 _9_ RTR  --- 0 AODV 48 [0 ffffffff 5 800] ------- [5:255 -1:255 4 0] [0x2 2 1 [37 5] [0 8]] (REQUEST)
r 1.515922170 _19_ RTR  --- 0 AODV 48 [0 ffffffff 5 800] ------- [5:255 -1:255 4 0] [0x2 2 1 [37 5] [0 8]] (REQUEST)
r 1.515922230 _35_ RTR  --- 0 AODV 48 [0 ffffffff 5 800] ------- [5:255 -1:255 4 0] [0x2 2 1 [37 5] [0 8]] (REQUEST)
r 1.515922248 _0_ RTR  --- 0 AODV 48 [0 ffffffff 5 800] ------- [5:255 -1:255 4 0] [0x2 2 1 [37 5] [0 8]] (REQUEST)
r 1.516840638 _27_ RTR  --- 0 AODV 48 [0 ffffffff 13 800] ------- [19:255 -1:255 4 0] [0x2 2 1 [37 5] [0 8]] (REQUEST)
r 1.516840691 _0_ RTR  --- 0 AODV 48 [0 ffffffff 13 800] ------- [19:255 -1:255 4 0] [0x2 2 1 [37 5] [0 8]] (REQUEST)
r 1.516840874 _6_ RTR  --- 0 AODV 48 [0 ffffffff 13 800] ------- [19:255 -1:255 4 0] [0x2 2 1 [37 5] [0 8]] (REQUEST)
r 1.516840877 _17_ RTR  --- 0 AODV 48 [0 ffffffff 13 800] ------- [19:255 -1:255 4 0] [0x2 2 1 [37 5] [0 8]] (REQUEST)
r 1.516840895 _9_ RTR  --- 0 AODV 48 [0 ffffffff 13 800] ------- [19:255 -1:255 4 0] [0x2 2 1 [37 5] [0 8]] (REQUEST)
r 1.516840896 _5_ RTR  --- 0 AODV 48 [0 ffffffff 13 800] ------- [19:255 -1:255 4 0] [0x2 2 1 [37 5] [0 8]] (REQUEST)
r 1.516840899 _30_ RTR  --- 0 AODV 48 [0 ffffffff 13 800] ------- [19:255 -1:255 4 0] [0x2 2 1 [37 5] [0 8]] (REQUEST)
r 1.517879139 _17_ RTR  --- 0 AODV 48 [0 ffffffff 6 800] ------- [6:255 -1:255 4 0] [0x2 2 1 [37 5] [0 8]] (REQUEST)
r 1.517879285 _34_ RTR  --- 0 AODV 48 [0 ffffffff 6 800] ------- [6:255 -1:255 4 0] [0x2 2 1 [37 5] [0 8]] (REQUEST)
r 1.517879421 _0_ RTR  --- 0 AODV 48 [0 ffffffff 6 800] ------- [6:255 -1:255 4 0] [0x2 2 1 [37 5] [0 8]] (REQUEST)
r 1.517879544 _13_ RTR  --- 0 AODV 48 [0 ffffffff 6 800] ------- [6:255 -1:255 4 0] [0x2 2 1 [37 5] [0 8]] (REQUEST)
r 1.517879578 _19_ RTR  --- 0 AODV 48 [0 ffffffff 6 800] ------- [6:255 -1:255 4 0] [0x2 2 1 [37 5] [0 8]] (REQUEST)
r 1.517879588 _29_ RTR  --- 0 AODV 48 [0 ffffffff 6 800] ------- [6:255 -1:255 4 0] [0x2 2 1 [37 5] [0 8]] (REQUEST)