s 1.000000000 _29_ AGT  --- 0 tcp 40 [0 0 0 0] ------- [29:0 0:6 32 0] [0 0] 0 0
r 1.000000000 _29_ RTR  --- 0 tcp 40 [0 0 0 0] ------- [29:0 0:6 32 0] [0 0] 0 0
s 1.000000000 _29_ RTR  --- 0 AODV 48 [0 0 0 0] ------- [29:255 -1:255 30 0] [0x2 1 1 [0 0] [29 4]] (REQUEST)
r 1.001208103 _11_ RTR  --- 0 AODV 48 [0 ffffffff 1d 800] ------- [29:255 -1:255 30 0] [0x2 1 1 [0 0] [29 4]] (REQUEST)
r 1.001208231 _20_ RTR  --- 0 AODV 48 [0 ffffffff 1d 800] ------- [29:255 -1:255 30 0] [0x2 1 1 [0 0] [29 4]] (REQUEST)
r 1.001208242 _25_ RTR  --- 0 AODV 48 [0 ffffffff 1d 800] ------- [29:255 -1:255 30 0] [0x2 1 1 [0 0] [29 4]] (REQUEST)
r 1.001208307 _32_ RTR  --- 0 AODV 48 [0 ffffffff 1d 800] ------- [29:255 -1:255 30 0] [0x2 1 1 [0 0] [29 4]] (REQUEST)
r 1.001208322 _3_ RTR  --- 0 AODV 48 [0 ffffffff 1d 800] ------- [29:255 -1:255 30 0] [0x2 1 1 [0 0] [29 4]] (REQUEST)
r 1.001208349 _38_ RTR  --- 0 AODV 48 [0 ffffffff 1d 800] ------- [29:255 -1:255 30 0] [0x2 1 1 [0 0] [29 4]] (REQUEST)
r 1.001208404 _13_ RTR  --- 0 AODV 48 [0 ffffffff 1d 800] ------- [29:255 -1:255 30 0] [0x2 1 1 [0 0] [29 4]] (REQUEST)
r 1.001208409 _33_ RTR  --- 0 AODV 48 [0 ffffffff 1d 800] ------- [29:255 -1:255 30 0] [0x2 1 1 [0 0] [29 4]] (REQUEST)
r 1.001208446 _7_ RTR  --- 0 AODV 48 [0 ffffffff 1d 800] ------- [29:255 -1:255 30 0] [0x2 1 1 [0 0] [29 4]] (REQUEST)
r 1.001208528 _8_ RTR  --- 0 AODV 48 [0 ffffffff 1d 800] ------- [29:255 -1:255 30 0] [0x2 1 1 [0 0] [29 4]] (REQUEST)
r 1.001208533 _21_ RTR  --- 0 AODV 48 [0 ffffffff 1d 800] ------- [29:255 -1:255 30 0] [0x2 1 1 [0 0] [29 4]] (REQUEST)
r 1.001208534 _5_ RTR  --- 0 AODV 48 [0 ffffffff 1d 800] ------- [29:255 -1:255 30 0] [0x2 1 1 [0 0] [29 4]] (REQUEST)
r 1.001208547 _15_ RTR  --- 0 AODV 48 [0 ffffffff 1d 800] ------- [29:255 -1:255 30 0] [0x2 1 1 [0 0] [29 4]] (REQUEST)
r 1.001208557 _27_ RTR  --- 0 AODV 48 [0 ffffffff 1d 800] ------- [29:255 -1:255 30 0] [0x2 1 1 [0 0] [29 4]] (REQUEST)
r 1.001208575 _2_ RTR  --- 0 AODV 48 [0 ffffffff 1d 800] ------- [29:255 -1:255 30 0] [0x2 1 1 [0 0] [29 4]] (REQUEST)
r 1.001208596 _24_ RTR  --- 0 AODV 48 [0 ffffffff 1d 800] ------- [29:255 -1:255 30 0] [0x2 1 1 [0 0] [29 4]] (REQUEST)
r 1.001208620 _34_ RTR  --- 0 AODV 48 [0 ffffffff 1d 800] ------- [29:255 -1:255 30 0] [0x2 1 1 [0 0] [29 4]] (REQUEST)
r 1.001208620 _9_ RTR  --- 0 AODV 48 [0 ffffffff 1d 800] ------- [29:255 -1:255 30 0] [0x2 1 1 [0 0] [29 4]] (REQUEST)
r 1.001208629 _31_ RTR  --- 0 AODV 48 [0 ffffffff 1d 800] ------- [29:255 -1:255 30 0] [0x2 1 1 [0 0] [29 4]] (REQUEST)
r 1.001208705 _14_ RTR  --- 0 AODV 48 [0 ffffffff 1d 800] ------- [29:255 -1:255 30 0] [0x2 1 1 [0 0] [29 4]] (REQUEST)
r 1.001208705 _1_ RTR  --- 0 AODV 48 [0 ffffffff 1d 800] ------- [29:255 -1:255 30 0] [0x2 1 1 [0 0] [29 4]] (REQUEST)
r 1.001208726 _23_ RTR  --- 0 AODV 48 [0 ffffffff 1d 800] ------- [29:255 -1:255 30 0] [0x2 1 1 [0 0] [29 4]] (REQUEST)
r 1.001208756 _36_ RTR  --- 0 AODV 48 [0 ffffffff 1d 800] ------- [29:255 -1:255 30 0] [0x2 1 1 [0 0] [29 4]] (REQUEST)
r 1.001208779 _18_ RTR  --- 0 AODV 48 [0 ffffffff 1d 800] ------- [29:255 -1:255 30 0] [0x2 1 1 [0 0] [29 4]] (REQUEST)
r 1.001208800 _28_ RTR  --- 0 AODV 48 [0 ffffffff 1d 800] ------- [29:255 -1:255 30 0] [0x2 1 1 [0 0] [29 4]] (REQUEST)
r 1.001208831 _12_ RTR  --- 0 AODV 48 [0 ffffffff 1d 800] ------- [29:255 -1:255 30 0] [0x2 1 1 [0 0] [29 4]] (REQUEST)
s 1.001636177 _20_ RTR  --- 0 AODV 48 [0 ffffffff 1d 800] ------- [20:255 -1:255 29 0] [0x2 2 1 [0 0] [29 4]] (REQUEST)
s 1.002149797 _33_ RTR  --- 0 AODV 48 [0 ffffffff 1d 800] ------- [33:255 -1:255 29 0] [0x2 2 1 [0 0] [29 4]] (REQUEST)
s 1.002300785 _28_ RTR  --- 0 AODV 48 [0 ffffffff 1d 800] ------- [28:255 -1:255 29 0] [0x2 2 1 [0 0] [29 4]] (REQUEST)
s 1.002346390 _32_ RTR  --- 0 AODV 48 [0 ffffffff 1d 800] ------- [32:255 -1:255 29 0] [0x2 2 1 [0 0] [29 4]] (REQUEST)
r 1.002684269 _3_ RTR  --- 0 AODV 48 [0 ffffffff 14 800] ------- [20:255 -1:255 29 0] [0x2 2 1 [0 0] [29 4]] (REQUEST)
r 1.002684310 _11_ RTR  --- 0 AODV 48 [0 ffffffff 14 800] ------- [20:255 -1:255 29 0] [0x2 2 1 [0 0] [29 4]] (REQUEST)
r 1.002684374 _38_ RTR  --- 0 AODV 48 [0 ffffffff 14 800] ------- [20:255 -1:255 29 0] [0x2 2 1 [0 0] [29 4]] (REQUEST)
r 1.002684377 _13_ RTR  --- 0 AODV 48 [0 ffffffff 14 800] ------- [20:255 -1:255 29 0] [0x2 2 1 [0 0] [29 4]] (REQUEST)
r 1.002684408 _29_ RTR  --- 0 AODV 48 [0 ffffffff 14 800] ------- [20:255 -1:255 29 0] [0x2 2 1 [0 0] [29 4]] (REQUEST)
r 1.002684506 _15_ RTR  --- 0 AODV 48 [0 ffffffff 14 800] ------- [20:255 -1:255 29 0] [0x2 2 1 [0 0] [29 4]] (REQUEST)
r 1.002684640 _25_ RTR  --- 0 AODV 48 [0 ffffffff 14 800] ------- [20:255 -1:255 29 0] [0x2 2 1 [0 0] [29 4]] (REQUEST)
r 1.002684662 _8_ RTR  --- 0 AODV 48 [0 ffffffff 14 800] ------- [20:255 -1:255 29 0] [0x2 2 1 [0 0] [29 4]] (REQUEST)
r 1.002684663 _2_ RTR  --- 0 AODV 48 [0 ffffffff 14 800] ------- [20:255 -1:255 29 0] [0x2 2 1 [0 0] [29 4]] (REQUEST)
r 1.002684703 _5_ RTR  --- 0 AODV 48 [0 ffffffff 14 800] ------- [20:255 -1:255 29 0] [0x2 2 1 [0 0] [29 4]] (REQUEST)
r 1.002684716 _32_ RTR  --- 0 AODV 48 [0 ffffffff 14 800] ------- [20:255 -1:255 29 0] [0x2 2 1 [0 0] [29 4]] (REQUEST)
r 1.002684717 _31_ RTR  --- 0 AODV 48 [0 ffffffff 14 800] ------- [20:255 -1:255 29 0] [0x2 2 1 [0 0] [29 4]] (REQUEST)
r 1.002684754 _21_ RTR  --- 0 AODV 48 [0 ffffffff 14 800] ------- [20:255 -1:255 29 0] [0x2 2 1 [0 0] [29 4]] (REQUEST)
r 1.002684784 _7_ RTR  --- 0 AODV 48 [0 ffffffff 14 800] ------- [20:255 -1:255 29 0] [0x2 2 1 [0 0] [29 4]] (REQUEST)
r 1.002684815 _33_ RTR  --- 0 AODV 48 [0 ffffffff 14 800] ------- [20:255 -1:255 29 0] [0x2 2 1 [0 0] [29 4]] (REQUEST)
r 1.002684824 _27_ RTR  --- 0 AODV 48 [0 ffffffff 14 800] ------- [20:255 -1:255 29 0] [0x2 2 1 [0 0] [29 4]] (REQUEST)
r 1.002684830 _18_ RTR  --- 0 AODV 48 [0 ffffffff 14 800] ------- [20:255 -1:255 29 0] [0x2 2 1 [0 0] [29 4]] (REQUEST)
r 1.002684835 _14_ RTR  --- 0 AODV 48 [0 ffffffff 14 800] ------- [20:255 -1:255 29 0] [0x2 2 1 [0 0] [29 4]] (REQUEST)
r 1.002684887 _28_ RTR  --- 0 AODV 48 [0 ffffffff 14 800] ------- [20:255 -1:255 29 0] [0x2 2 1 [0 0] [29 4]] (REQUEST)
r 1.002684929 _24_ RTR  --- 0 AODV 48 [0 ffffffff 14 800] ------- [20:255 -1:255 29 0] [0x2 2 1 [0 0] [29 4]] (REQUEST)
r 1.002684941 _19_ RTR  --- 0 AODV 48 [0 ffffffff 14 800] ------- [20:255 -1:255 29 0] [0x2 2 1 [0 0] [29 4]] (REQUEST)
r 1.002684947 _10_ RTR  --- 0 AODV 48 [0 ffffffff 14 800] ------- [20:255 -1:255 29 0] [0x2 2 1 [0 0] [29 4]] (REQUEST)
r 1.002684951 _34_ RTR  --- 0 AODV 48 [0 ffffffff 14 800] ------- [20:255 -1:255 29 0] [0x2 2 1 [0 0] [29 4]] (REQUEST)
r 1.002685000 _17_ RTR  --- 0 AODV 48 [0 ffffffff 14 800] ------- [20:255 -1:255 29 0] [0x2 2 1 [0 0] [29 4]] (REQUEST)
r 1.002685007 _1_ RTR  --- 0 AODV 48 [0 ffffffff 14 800] ------- [20:255 -1:255 29 0] [0x2 2 1 [0 0] [29 4]] (REQUEST)
r 1.002685009 _37_ RTR  --- 0 AODV 48 [0 ffffffff 14 800] ------- [20:255 -1:255 29 0] [0x2 2 1 [0 0] [29 4]] (REQUEST)
s 1.002793030 _10_ RTR  --- 0 AODV 48 [0 ffffffff 14 800] ------- [10:255 -1:255 28 0] [0x2 3 1 [0 0] [29 4]] (REQUEST)
s 1.002849557 _11_ RTR  --- 0 AODV 48 [0 ffffffff 1d 800] ------- [11:255 -1:255 29 0] [0x2 2 1 [0 0] [29 4]] (REQUEST)
s 1.002956456 _13_ RTR  --- 0 AODV 48 [0 ffffffff 1d 800] ------- [13:255 -1:255 29 0] [0x2 2 1 [0 0] [29 4]] (REQUEST)
s 1.003268967 _19_ RTR  --- 0 AODV 48 [0 ffffffff 14 800] ------- [19:255 -1:255 28 0] [0x2 3 1 [0 0] [29 4]] (REQUEST)
s 1.003380215 _9_ RTR  --- 0 AODV 48 [0 ffffffff 1d 800] ------- [9:255 -1:255 29 0] [0x2 2 1 [0 0] [29 4]] (REQUEST)
s 1.003620885 _31_ RTR  --- 0 AODV 48 [0 ffffffff 1d 800] ------- [31:255 -1:255 29 0] [0x2 2 1 [0 0] [29 4]] (REQUEST)
r 1.003782831 _33_ RTR  --- 0 AODV 48 [0 ffffffff 20 800] ------- [32:255 -1:255 29 0] [0x2 2 1 [0 0] [29 4]] (REQUEST)
r 1.003782848 _25_ RTR  --- 0 AODV 48 [0 ffffffff 20 800] ------- [32:255 -1:255 29 0] [0x2 2 1 [0 0] [29 4]] (REQUEST)
r 1.003783023 _29_ RTR  --- 0 AODV 48 [0 ffffffff 20 800] ------- [32:255 -1:255 29 0] [0x2 2 1 [0 0] [29 4]] (REQUEST)
r 1.003783048 _9_ RTR  --- 0 AODV 48 [0 ffffffff 20 800] ------- [32:255 -1:255 29 0] [0x2 2 1 [0 0] [29 4]] (REQUEST)
r 1.003783093 _7_ RTR  --- 0 AODV 48 [0 ffffffff 20 800] ------- [32:255 -1:255 29 0] [0x2 2 1 [0 0] [29 4]] (REQUEST)
r 1.003783124 _11_ RTR  --- 0 AODV 48 [0 ffffffff 20 800] ------- [32:255 -1:255 29 0] [0x2 2 1 [0 0] [29 4]] (REQUEST)
r 1.003783213 _24_ RTR  --- 0 AODV 48 [0 ffffffff 20 800] ------- [32:255 -1:255 29 0] [0x2 2 1 [0 0] [29 4]] (REQUEST)
r 1.003783226 _34_ RTR  --- 0 AODV 48 [0 ffffffff 20 800] ------- [32:255 -1:255 29 0] [0x2 2 1 [0 0] [29 4]] (REQUEST)
r 1.003783248 _23_ RTR  --- 0 AODV 48 [0 ffffffff 20 800] ------- [32:255 -1:255 29 0] [0x2 2 1 [0 0] [29 4]] (REQUEST)
r 1.003783254 _20_ RTR  --- 0 AODV 48 [0 ffffffff 20 800] ------- [32:255 -1:255 29 0] [0x2 2 1 [0 0] [29 4]] (REQUEST)
r 1.003783287 _27_ RTR  --- 0 AODV 48 [0 ffffffff 20 800] ------- [32:255 -1:255 29 0] [0x2 2 1 [0 0] [29 4]] (REQUEST)
r 1.003783306 _12_ RTR  --- 0 AODV 48 [0 ffffffff 20 800] ------- [32:255 -1:255 29 0] [0x2 2 1 [0 0] [29 4]] (REQUEST)
r 1.003783331 _21_ RTR  --- 0 AODV 48 [0 ffffffff 20 800] ------- [32:255 -1:255 29 0] [0x2 2 1 [0 0] [29 4]] (REQUEST)
r 1.003783345 _3_ RTR  --- 0 AODV 48 [0 ffffffff 20 800] ------- [32:255 -1:255 29 0] [0x2 2 1 [0 0] [29 4]] (REQUEST)
r 1.003783345 _38_ RTR  --- 0 AODV 48 [0 ffffffff 20 800] ------- [32:255 -1:255 29 0] [0x2 2 1 [0 0] [29 4]] (REQUEST)
r 1.003783360 _1_ RTR  --- 0 AODV 48 [0 ffffffff 20 800] ------- [32:255 -1:255 29 0] [0x2 2 1 [0 0] [29 4]] (REQUEST)
r 1.003783382 _30_ RTR  --- 0 AODV 48 [0 ffffffff 20 800] ------- [32:255 -1:255 29 0] [0x2 2 1 [0 0] [29 4]] (REQUEST)
r 1.003783399 _5_ RTR  --- 0 AODV 48 [0 ffffffff 20 800] ------- [32:255 -1:255 29 0] [0x2 2 1 [0 0] [29 4]] (REQUEST)
r 1.003783418 _13_ RTR  --- 0 AODV 48 [0 ffffffff 20 800] ------- [32:255 -1:255 29 0] [0x2 2 1 [0 0] [29 4]] (REQUEST)
r 1.003783427 _8_ RTR  --- 0 AODV 48 [0 ffffffff 20 800] ------- [32:255 -1:255 29 0] [0x2 2 1 [0 0] [29 4]] (REQUEST)
r 1.003783472 _36_ RTR  --- 0 AODV 48 [0 ffffffff 20 800] ------- [32:255 -1:255 29 0] [0x2 2 1 [0 0] [29 4]] (REQUEST)
r 1.003783475 _39_ RTR  --- 0 AODV 48 [0 ffffffff 20 800] ------- [32:255 -1:255 29 0] [0x2 2 1 [0 0] [29 4]] (REQUEST)
r 1.003783501 _2_ RTR  --- 0 AODV 48 [0 ffffffff 20 800] ------- [32:255 -1:255 29 0] [0x2 2 1 [0 0] [29 4]] (REQUEST)
s 1.003789412 _21_ RTR  --- 0 AODV 48 [0 ffffffff 1d 800] ------- [21:255 -1:255 29 0] [0x2 2 1 [0 0] [29 4]] (REQUEST)
r 1.004681343 _12_ RTR  --- 0 AODV 48 [0 ffffffff 9 800] ------- [9:255 -1:255 29 0] [0x2 2 1 [0 0] [29 4]] (REQUEST)
r 1.004681344 _33_ RTR  --- 0 AODV 48 [0 ffffffff 9 800] ------- [9:255 -1:255 29 0] [0x2 2 1 [0 0] [29 4]] (REQUEST)
r 1.004681369 _23_ RTR  --- 0 AODV 48 [0 ffffffff 9 800] ------- [9:255 -1:255 29 0] [0x2 2 1 [0 0] [29 4]] (REQUEST)
r 1.004681381 _32_ RTR  --- 0 AODV 48 [0 ffffffff 9 800] ------- [9:255 -1:255 29 0] [0x2 2 1 [0 0] [29 4]] (REQUEST)
r 1.004681432 _25_ RTR  --- 0 AODV 48 [0 ffffffff 9 800] ------- [9:255 -1:255 29 0] [0x2 2 1 [0 0] [29 4]] (REQUEST)
r 1.004681463 _7_ RTR  --- 0 AODV 48 [0 ffffffff 9 800] ------- [9:255 -1:255 29 0] [0x2 2 1 [0 0] [29 4]] (REQUEST)
r 1.004681482 _24_ RTR  --- 0 AODV 48 [0 ffffffff 9 800] ------- [9:255 -1:255 29 0] [0x2 2 1 [0 0] [29 4]] (REQUEST)
r 1.004681494 _30_ RTR  --- 0 AODV 48 [0 ffffffff 9 800] ------- [9:255 -1:255 29 0] [0x2 2 1 [0 0] [29 4]] (REQUEST)
r 1.004681613 _39_ RTR  --- 0 AODV 48 [0 ffffffff 9 800] ------- [9:255 -1:255 29 0] [0x2 2 1 [0 0] [29 4]] (REQUEST)
r 1.004681627 _1_ RTR  --- 0 AODV 48 [0 ffffffff 9 800] ------- [9:255 -1:255 29 0] [0x2 2 1 [0 0] [29 4]] (REQUEST)
r 1.004681669 _29_ RTR  --- 0 AODV 48 [0 ffffffff 9 800] ------- [9:255 -1:255 29 0] [0x2 2 1 [0 0] [29 4]] (REQUEST)
r 1.004681717 _35_ RTR  --- 0 AODV 48 [0 ffffffff 9 800] ------- [9:255 -1:255 29 0] [0x2 2 1 [0 0] [29 4]] (REQUEST)
r 1.004681757 _34_ RTR  --- 0 AODV 48 [0 ffffffff 9 800] ------- [9:255 -1:255 29 0] [0x2 2 1 [0 0] [29 4]] (REQUEST)
r 1.004681772 _11_ RTR  --- 0 AODV 48 [0 ffffffff 9 800] ------- [9:255 -1:255 29 0] [0x2 2 1 [0 0] [29 4]] (REQUEST)
r 1.004681783 _36_ RTR  --- 0 AODV 48 [0 ffffffff 9 800] ------- [9:255 -1:255 29 0] [0x2 2 1 [0 0] [29 4]] (REQUEST)
r 1.004681872 _5_ RTR  --- 0 AODV 48 [0 ffffffff 9 800] ------- [9:255 -1:255 29 0] [0x2 2 1 [0 0] [29 4]] (REQUEST)
s 1.004695938 _8_ RTR  --- 0 AODV 48 [0 ffffffff 1d 800] ------- [8:255 -1:255 29 0] [0x2 2 1 [0 0] [29 4]] (REQUEST)
s 1.005250906 _12_ RTR  --- 0 AODV 48 [0 ffffffff 1d 800] ------- [12:255 -1:255 29 0] [0x2 2 1 [0 0] [29 4]] (REQUEST)
s 1.005263970 _18_ RTR  --- 0 AODV 48 [0 ffffffff 1d 800] ------- [18:255 -1:255 29 0] [0x2 2 1 [0 0] [29 4]] (REQUEST)
s 1.005295391 _5_ RTR  --- 0 AODV 48 [0 ffffffff 1d 800] ------- [5:255 -1:255 29 0] [0x2 2 1 [0 0] [29 4]] (REQUEST)
s 1.005444917 _38_ RTR  --- 0 AODV 48 [0 ffffffff 1d 800] ------- [38:255 -1:255 29 0] [0x2 2 1 [0 0] [29 4]] (REQUEST)
r 1.005759875 _29_ RTR  --- 0 AODV 48 [0 ffffffff b 800] ------- [11:255 -1:255 29 0] [0x2 2 1 [0 0] [29 4]] (REQUEST)
r 1.005759905 _20_ RTR  --- 0 AODV 48 [0 ffffffff b 800] ------- [11:255 -1:255 29 0] [0x2 2 1 [0 0] [29 4]] (REQUEST)
r 1.005759997 _3_ RTR  --- 0 AODV 48 [0 ffffffff b 800] ------- [11:255 -1:255 29 0] [0x2 2 1 [0 0] [29 4]] (REQUEST)
r 1.005760025 _38_ RTR  --- 0 AODV 48 [0 ffffffff b 800] ------- [11:255 -1:255 29 0] [0x2 2 1 [0 0] [29 4]] (REQUEST)
r 1.005760093 _13_ RTR  --- 0 AODV 48 [0 ffffffff b 800] ------- [11:255 -1:255 29 0] [0x2 2 1 [0 0] [29 4]] (REQUEST)
r 1.005760116 _25_ RTR  --- 0 AODV 48 [0 ffffffff b 800] ------- [11:255 -1:255 29 0] [0x2 2 1 [0 0] [29 4]] (REQUEST)
r 1.005760180 _32_ RTR  --- 0 AODV 48 [0 ffffffff b 800] ------- [11:255 -1:255 29 0] [0x2 2 1 [0 0] [29 4]] (REQUEST)
r 1.005760216 _15_ RTR  --- 0 AODV 48 [0 ffffffff b 800] ------- [11:255 -1:255 29 0] [0x2 2 1 [0 0] [29 4]] (REQUEST)
r 1.005760276 _2_ RTR  --- 0 AODV 48 [0 ffffffff b 800] ------- [11:255 -1:255 29 0] [0x2 2 1 [0 0] [29 4]] (REQUEST)
r 1.005760277 _33_ RTR  --- 0 AODV 48 [0 ffffffff b 800] ------- [11:255 -1:255 29 0] [0x2 2 1 [0 0] [29 4]] (REQUEST)
r 1.005760289 _21_ RTR  --- 0 AODV 48 [0 ffffffff b 800] ------- [11:255 -1:255 29 0] [0x2 2 1 [0 0] [29 4]] (REQUEST)
r 1.005760292 _8_ RTR  --- 0 AODV 48 [0 ffffffff b 800] ------- [11:255 -1:255 29 0] [0x2 2 1 [0 0] [29 4]] (REQUEST)
r 1.005760299 _7_ RTR  --- 0 AODV 48 [0 ffffffff b 800] ------- [11:255 -1:255 29 0] [0x2 2 1 [0 0] [29 4]] (REQUEST)
r 1.005760314 _5_ RTR  --- 0 AODV 48 [0 ffffffff b 800] ------- [11:255 -1:255 29 0] [0x2 2 1 [0 0] [29 4]] (REQUEST)
r 1.005760336 _27_ RTR  --- 0 AODV 48 [0 ffffffff b 800] ------- [11:255 -1:255 29 0] [0x2 2 1 [0 0] [29 4]] (REQUEST)
r 1.005760375 _31_ RTR  --- 0 AODV 48 [0 ffffffff b 800] ------- [11:255 -1:255 29 0] [0x2 2 1 [0 0] [29 4]] (REQUEST)
r 1.005760424 _14_ RTR  --- 0 AODV 48 [0 ffffffff b 800] ------- [11:255 -1:255 29 0] [0x2 2 1 [0 0] [29 4]] (REQUEST)
r 1.005760436 _34_ RTR  --- 0 AODV 48 [0 ffffffff b 800] ------- [11:255 -1:255 29 0] [0x2 2 1 [0 0] [29 4]] (REQUEST)
r 1.005760449 _24_ RTR  --- 0 AODV 48 [0 ffffffff b 800] ------- [11:255 -1:255 29 0] [0x2 2 1 [0 0] [29 4]] (REQUEST)
r 1.005760470 _18_ RTR  --- 0 AODV 48 [0 ffffffff b 800] ------- [11:255 -1:255 29 0] [0x2 2 1 [0 0] [29 4]] (REQUEST)
r 1.005760496 _9_ RTR  --- 0 AODV 48 [0 ffffffff b 800] ------- [11:255 -1:255 29 0] [0x2 2 1 [0 0] [29 4]] (REQUEST)
r 1.005760503 _28_ RTR  --- 0 AODV 48 [0 ffffffff b 800] ------- [11:255 -1:255 29 0] [0x2 2 1 [0 0] [29 4]] (REQUEST)
r 1.005760546 _1_ RTR  --- 0 AODV 48 [0 ffffffff b 800] ------- [11:255 -1:255 29 0] [0x2 2 1 [0 0] [29 4]] (REQUEST)
r 1.005760579 _36_ RTR  --- 0 AODV 48 [0 ffffffff b 800] ------- [11:255 -1:255 29 0] [0x2 2 1 [0 0] [29 4]] (REQUEST)
r 1.005760592 _23_ RTR  --- 0 AODV 48 [0 ffffffff b 800] ------- [11:255 -1:255 29 0] [0x2 2 1 [0 0] [29 4]] (REQUEST)
s 1.005869716 _27_ RTR  --- 0 AODV 48 [0 ffffffff 1d 800] ------- [27:255 -1:255 29 0] [0x2 2 1 [0 0] [29 4]] (REQUEST)
s 1.006041637 _37_ RTR  --- 0 AODV 48 [0 ffffffff 14 800] ------- [37:255 -1:255 28 0] [0x2 3 1 [0 0] [29 4]] (REQUEST)
s 1.006395035 _15_ RTR  --- 0 AODV 48 [0 ffffffff 1d 800] ------- [15:255 -1:255 29 0] [0x2 2 1 [0 0] [29 4]] (REQUEST)
s 1.006543860 _35_ RTR  --- 0 AODV 48 [0 ffffffff 9 800] ------- [35:255 -1:255 28 0] [0x2 3 1 [0 0] [29 4]] (REQUEST)
r 1.006678396 _8_ RTR  --- 0 AODV 48 [0 ffffffff 5 800] ------- [5:255 -1:255 29 0] [0x2 2 1 [0 0] [29 4]] (REQUEST)
r 1.006678521 _31_ RTR  --- 0 AODV 48 [0 ffffffff 5 800] ------- [5:255 -1:255 29 0] [0x2 2 1 [0 0] [29 4]] (REQUEST)
r 1.006678636 _18_ RTR  --- 0 AODV 48 [0 ffffffff 1c 800] ------- [28:255 -1:255 29 0] [0x2 2 1 [0 0] [29 4]] (REQUEST)
r 1.006678663 _14_ RTR  --- 0 AODV 48 [0 ffffffff 1c 800] ------- [28:255 -1:255 29 0] [0x2 2 1 [0 0] [29 4]] (REQUEST)
r 1.006678685 _36_ RTR  --- 0 AODV 48 [0 ffffffff 5 800] ------- [5:255 -1:255 29 0] [0x2 2 1 [0 0] [29 4]] (REQUEST)
r 1.006678701 _16_ RTR  --- 0 AODV 48 [0 ffffffff 5 800] ------- [5:255 -1:255 29 0] [0x2 2 1 [0 0] [29 4]] (REQUEST)
r 1.006678705 _4_ RTR  --- 0 AODV 48 [0 ffffffff 5 800] ------- [5:255 -1:255 29 0] [0x2 2 1 [0 0] [29 4]] (REQUEST)
r 1.006678722 _10_ RTR  --- 0 AODV 48 [0 ffffffff 5 800] ------- [5:255 -1:255 29 0] [0x2 2 1 [0 0] [29 4]] (REQUEST)
r 1.006678723 _19_ RTR  --- 0 AODV 48 [0 ffffffff 5 800] ------- [5:255 -1:255 29 0] [0x2 2 1 [0 0] [29 4]] (REQUEST)
r 1.006678726 _7_ RTR  --- 0 AODV 48 [0 ffffffff 5 800] ------- [5:255 -1:255 29 0] [0x2 2 1 [0 0] [29 4]] (REQUEST)
r 1.006678731 _2_ RTR  --- 0 AODV 48 [0 ffffffff 1c 800] ------- [28:255 -1:255 29 0] [0x2 2 1 [0 0] [29 4]] (REQUEST)
r 1.006678762 _1_ RTR  --- 0 AODV 48 [0 ffffffff 5 800] ------- [5:255 -1:255 29 0] [0x2 2 1 [0 0] [29 4]] (REQUEST)
r 1.006678771 _13_ RTR  --- 0 AODV 48 [0 ffffffff 5 800] ------- [5:255 -1:255 29 0] [0x2 2 1 [0 0] [29 4]] (REQUEST)
r 1.006678786 _24_ RTR  --- 0 AODV 48 [0 ffffffff 5 800] ------- [5:255 -1:255 29 0] [0x2 2 1 [0 0] [29 4]] (REQUEST)
r 1.006678794 _22_ RTR  --- 0 AODV 48 [0 ffffffff 5 800] ------- [5:255 -1:255 29 0] [0x2 2 1 [0 0] [29 4]] (REQUEST)
r 1.006678864 _25_ RTR  --- 0 AODV 48 [0 ffffffff 5 800] ------- [5:255 -1:255 29 0] [0x2 2 1 [0 0] [29 4]] (REQUEST)
r 1.006678899 _26_ RTR  --- 0 AODV 48 [0 ffffffff 5 800] ------- [5:255 -1:255 29 0] [0x2 2 1 [0 0] [29 4]] (REQUEST)
r 1.006678908 _37_ RTR  --- 0 AODV 48 [0 ffffffff 5 800] ------- [5:255 -1:255 29 0] [0x2 2 1 [0 0] [29 4]] (REQUEST)
r 1.006678929 _17_ RTR  --- 0 AODV 48 [0 ffffffff 5 800] ------- [5:255 -1:255 29 0] [0x2 2 1 [0 0] [29 4]] (REQUEST)
r 1.006678932 _21_ RTR  --- 0 AODV 48 [0 ffffffff 1c 800] ------- [28:255 -1:255 29 0] [0x2 2 1 [0 0] [29 4]] (REQUEST)
r 1.006679007 _23_ RTR  --- 0 AODV 48 [0 ffffffff 5 800] ------- [5:255 -1:255 29 0] [0x2 2 1 [0 0] [29 4]] (REQUEST)
r 1.006679036 _39_ RTR  --- 0 AODV 48 [0 ffffffff 5 800] ------- [5:255 -1:255 29 0] [0x2 2 1 [0 0] [29 4]] (REQUEST)
r 1.006679051 _27_ RTR  --- 0 AODV 48 [0 ffffffff 1c 800] ------- [28:255 -1:255 29 0] [0x2 2 1 [0 0] [29 4]] (REQUEST)
s 1.007560796 _22_ RTR  --- 0 AODV 48 [0 ffffffff 5 800] ------- [22:255 -1:255 28 0] [0x2 3 1 [0 0] [29 4]] (REQUEST)
s 1.007608918 _25_ RTR  --- 0 AODV 48 [0 ffffffff 1d 800] ------- [25:255 -1:255 29 0] [0x2 2 1 [0 0] [29 4]] (REQUEST)
r 1.007981320 _38_ RTR  --- 0 AODV 48 [0 ffffffff f 800] ------- [15:255 -1:255 29 0] [0x2 2 1 [0 0] [29 4]] (REQUEST)
r 1.007981345 _3_ RTR  --- 0 AODV 48 [0 ffffffff f 800] ------- [15:255 -1:255 29 0] [0x2 2 1 [0 0] [29 4]] (REQUEST)
r 1.007981391 _13_ RTR  --- 0 AODV 48 [0 ffffffff f 800] ------- [15:255 -1:255 29 0] [0x2 2 1 [0 0] [29 4]] (REQUEST)
r 1.007981410 _20_ RTR  --- 0 AODV 48 [0 ffffffff f 800] ------- [15:255 -1:255 29 0] [0x2 2 1 [0 0] [29 4]] (REQUEST)
r 1.007981478 _2_ RTR  --- 0 AODV 48 [0 ffffffff f 800] ------- [15:255 -1:255 29 0] [0x2 2 1 [0 0] [29 4]] (REQUEST)
r 1.007981525 _11_ RTR  --- 0 AODV 48 [0 ffffffff f 800] ------- [15:255 -1:255 29 0] [0x2 2 1 [0 0] [29 4]] (REQUEST)
r 1.007981536 _18_ RTR  --- 0 AODV 48 [0 ffffffff f 800] ------- [15:255 -1:255 29 0] [0x2 2 1 [0 0] [29 4]] (REQUEST)
r 1.007981628 _29_ RTR  --- 0 AODV 48 [0 ffffffff f 800] ------- [15:255 -1:255 29 0] [0x2 2 1 [0 0] [29 4]] (REQUEST)
r 1.007981641 _28_ RTR  --- 0 AODV 48 [0 ffffffff f 800] ------- [15:255 -1:255 29 0] [0x2 2 1 [0 0] [29 4]] (REQUEST)
r 1.007981668 _14_ RTR  --- 0 AODV 48 [0 ffffffff f 800] ------- [15:255 -1:255 29 0] [0x2 2 1 [0 0] [29 4]] (REQUEST)
r 1.007981733 _21_ RTR  --- 0 AODV 48 [0 ffffffff f 800] ------- [15:255 -1:255 29 0] [0x2 2 1 [0 0] [29 4]] (REQUEST)
r 1.007981775 _31_ RTR  --- 0 AODV 48 [0 ffffffff f 800] ------- [15:255 -1:255 29 0] [0x2 2 1 [0 0] [29 4]] (REQUEST)
r 1.007981782 _8_ RTR  --- 0 AODV 48 [0 ffffffff f 800] ------- [15:255 -1:255 29 0] [0x2 2 1 [0 0] [29 4]] (REQUEST)
r 1.007981845 _27_ RTR  --- 0 AODV 48 [0 ffffffff f 800] ------- [15:255 -1:255 29 0] [0x2 2 1 [0 0] [29 4]] (REQUEST)
r 1.007981847 _5_ RTR  --- 0 AODV 48 [0 ffffffff f 800] ------- [15:255 -1:255 29 0] [0x2 2 1 [0 0] [29 4]] (REQUEST)
r 1.007981868 _25_ RTR  --- 0 AODV 48 [0 ffffffff f 800] ------- [15:255 -1:255 29 0] [0x2 2 1 [0 0] [29 4]] (REQUEST)
r 1.007981898 _17_ RTR  --- 0 AODV 48 [0 ffffffff f 800] ------- [15:255 -1:255 29 0] [0x2 2 1 [0 0] [29 4]] (REQUEST)
s 1.007982195 _1_ RTR  --- 0 AODV 48 [0 ffffffff 1d 800] ------- [1:255 -1:255 29 0] [0x2 2 1 [0 0] [29 4]] (REQUEST)
s 1.008040348 _39_ RTR  --- 0 AODV 48 [0 ffffffff 20 800] ------- [39:255 -1:255 28 0] [0x2 3 1 [0 0] [29 4]] (REQUEST)
s 1.008131643 _2_ RTR  --- 0 AODV 48 [0 ffffffff 1d 800] ------- [2:255 -1:255 29 0] [0x2 2 1 [0 0] [29 4]] (REQUEST)
s 1.008635274 _17_ RTR  --- 0 AODV 48 [0 ffffffff 14 800] ------- [17:255 -1:255 28 0] [0x2 3 1 [0 0] [29 4]] (REQUEST)
s 1.008831045 _23_ RTR  --- 0 AODV 48 [0 ffffffff 1d 800] ------- [23:255 -1:255 29 0] [0x2 2 1 [0 0] [29 4]] (REQUEST)
r 1.008899861 _27_ RTR  --- 0 AODV 48 [0 ffffffff 15 800] ------- [21:255 -1:255 29 0] [0x2 2 1 [0 0] [29 4]] (REQUEST)
r 1.008900006 _14_ RTR  --- 0 AODV 48 [0 ffffffff 15 800] ------- [21:255 -1:255 29 0] [0x2 2 1 [0 0] [29 4]] (REQUEST)
r 1.008900048 _2_ RTR  --- 0 AODV 48 [0 ffffffff 15 800] ------- [21:255 -1:255 29 0] [0x2 2 1 [0 0] [29 4]] (REQUEST)
r 1.008900090 _34_ RTR  --- 0 AODV 48 [0 ffffffff 15 800] ------- [21:255 -1:255 29 0] [0x2 2 1 [0 0] [29 4]] (REQUEST)
r 1.008900162 _28_ RTR  --- 0 AODV 48 [0 ffffffff 15 800] ------- [21:255 -1:255 29 0] [0x2 2 1 [0 0] [29 4]] (REQUEST)
r 1.008900181 _38_ RTR  --- 0 AODV 48 [0 ffffffff 15 800] ------- [21:255 -1:255 29 0] [0x2 2 1 [0 0] [29 4]] (REQUEST)
r 1.008900231 _18_ RTR  --- 0 AODV 48 [0 ffffffff 15 800] ------- [21:255 -1:255 29 0] [0x2 2 1 [0 0] [29 4]] (REQUEST)
r 1.008900249 _11_ RTR  --- 0 AODV 48 [0 ffffffff 15 800] ------- [21:255 -1:255 29 0] [0x2 2 1 [0 0] [29 4]] (REQUEST)
r 1.008900266 _29_ RTR  --- 0 AODV 48 [0 ffffffff 15 800] ------- [21:255 -1:255 29 0] [0x2 2 1 [0 0] [29 4]] (REQUEST)
r 1.008900310 _20_ RTR  --- 0 AODV 48 [0 ffffffff 15 800] ------- [21:255 -1:255 29 0] [0x2 2 1 [0 0] [29 4]] (REQUEST)
r 1.008900348 _32_ RTR  --- 0 AODV 48 [0 ffffffff 15 800] ------- [21:255 -1:255 29 0] [0x2 2 1 [0 0] [29 4]] (REQUEST)
r 1.008900352 _33_ RTR  --- 0 AODV 48 [0 ffffffff 15 800] ------- [21:255 -1:255 29 0] [0x2 2 1 [0 0] [29 4]] (REQUEST)
r 1.008900369 _3_ RTR  --- 0 AODV 48 [0 ffffffff 15 800] ------- [21:255 -1:255 29 0] [0x2 2 1 [0 0] [29 4]] (REQUEST)
r 1.008900385 _15_ RTR  --- 0 AODV 48 [0 ffffffff 15 800] ------- [21:255 -1:255 29 0] [0x2 2 1 [0 0] [29 4]] (REQUEST)
r 1.008900403 _25_ RTR  --- 0 AODV 48 [0 ffffffff 15 800] ------- [21:255 -1:255 29 0] [0x2 2 1 [0 0] [29 4]] (REQUEST)
r 1.008900495 _13_ RTR  --- 0 AODV 48 [0 ffffffff 15 800] ------- [21:255 -1:255 29 0] [0x2 2 1 [0 0] [29 4]] (REQUEST)
s 1.009278731 _7_ RTR  --- 0 AODV 48 [0 ffffffff 1d 800] ------- [7:255 -1:255 29 0] [0x2 2 1 [0 0] [29 4]] (REQUEST)
s 1.009331779 _30_ RTR  --- 0 AODV 48 [0 ffffffff 20 800] ------- [30:255 -1:255 28 0] [0x2 3 1 [0 0] [29 4]] (REQUEST)
s 1.009606872 _34_ RTR  --- 0 AODV 48 [0 ffffffff 1d 800] ------- [34:255 -1:255 29 0] [0x2 2 1 [0 0] [29 4]] (REQUEST)
s 1.009719770 _14_ RTR  --- 0 AODV 48 [0 ffffffff 1d 800] ------- [14:255 -1:255 29 0] [0x2 2 1 [0 0] [29 4]] (REQUEST)
s 1.009805599 _3_ RTR  --- 0 AODV 48 [0 ffffffff 1d 800] ------- [3:255 -1:255 29 0] [0x2 2 1 [0 0] [29 4]] (REQUEST)
s 1.009829269 _24_ RTR  --- 0 AODV 48 [0 ffffffff 1d 800] ------- [24:255 -1:255 29 0] [0x2 2 1 [0 0] [29 4]] (REQUEST)
r 1.009857990 _21_ RTR  --- 0 AODV 48 [0 ffffffff 1b 800] ------- [27:255 -1:255 29 0] [0x2 2 1 [0 0] [29 4]] (REQUEST)
r 1.009858092 _34_ RTR  --- 0 AODV 48 [0 ffffffff 1b 800] ------- [27:255 -1:255 29 0] [0x2 2 1 [0 0] [29 4]] (REQUEST)
r 1.009858250 _14_ RTR  --- 0 AODV 48 [0 ffffffff 1b 800] ------- [27:255 -1:255 29 0] [0x2 2 1 [0 0] [29 4]] (REQUEST)
r 1.009858305 _2_ RTR  --- 0 AODV 48 [0 ffffffff 1b 800] ------- [27:255 -1:255 29 0] [0x2 2 1 [0 0] [29 4]] (REQUEST)
r 1.009858408 _38_ RTR  --- 0 AODV 48 [0 ffffffff 1b 800] ------- [27:255 -1:255 29 0] [0x2 2 1 [0 0] [29 4]] (REQUEST)
r 1.009858409 _28_ RTR  --- 0 AODV 48 [0 ffffffff 1b 800] ------- [27:255 -1:255 29 0] [0x2 2 1 [0 0] [29 4]] (REQUEST)
r 1.009858413 _33_ RTR  --- 0 AODV 48 [0 ffffffff 1b 800] ------- [27:255 -1:255 29 0] [0x2 2 1 [0 0] [29 4]] (REQUEST)
r 1.009858418 _29_ RTR  --- 0 AODV 48 [0 ffffffff 1b 800] ------- [27:255 -1:255 29 0] [0x2 2 1 [0 0] [29 4]] (REQUEST)
r 1.009858425 _11_ RTR  --- 0 AODV 48 [0 ffffffff 1b 800] ------- [27:255 -1:255 29 0] [0x2 2 1 [0 0] [29 4]] (REQUEST)
r 1.009858432 _32_ RTR  --- 0 AODV 48 [0 ffffffff 1b 800] ------- [27:255 -1:255 29 0] [0x2 2 1 [0 0] [29 4]] (REQUEST)
r 1.009858486 _18_ RTR  --- 0 AODV 48 [0 ffffffff 1b 800] ------- [27:255 -1:255 29 0] [0x2 2 1 [0 0] [29 4]] (REQUEST)
r 1.009858508 _20_ RTR  --- 0 AODV 48 [0 ffffffff 1b 800] ------- [27:255 -1:255 29 0] [0x2 2 1 [0 0] [29 4]] (REQUEST)
r 1.009858510 _25_ RTR  --- 0 AODV 48 [0 ffffffff 1b 800] ------- [27:255 -1:255 29 0] [0x2 2 1 [0 0] [29 4]] (REQUEST)
r 1.009858578 _3_ RTR  --- 0 AODV 48 [0 ffffffff 1b 800] ------- [27:255 -1:255 29 0] [0x2 2 1 [0 0] [29 4]] (REQUEST)
r 1.009858625 _15_ RTR  --- 0 AODV 48 [0 ffffffff 1b 800] ------- [27:255 -1:255 29 0] [0x2 2 1 [0 0] [29 4]] (REQUEST)
s 1.010258211 _36_ RTR  --- 0 AODV 48 [0 ffffffff 1d 800] ------- [36:255 -1:255 29 0] [0x2 2 1 [0 0] [29 4]] (REQUEST)
r 1.010776529 _32_ RTR  --- 0 AODV 48 [0 ffffffff 21 800] ------- [33:255 -1:255 29 0] [0x2 2 1 [0 0] [29 4]] (REQUEST)
r 1.010776659 _25_ RTR  --- 0 AODV 48 [0 ffffffff 21 800] ------- [33:255 -1:255 29 0] [0x2 2 1 [0 0] [29 4]] (REQUEST)
r 1.010776709 _9_ RTR  --- 0 AODV 48 [0 ffffffff 21 800] ------- [33:255 -1:255 29 0] [0x2 2 1 [0 0] [29 4]] (REQUEST)
r 1.010776822 _29_ RTR  --- 0 AODV 48 [0 ffffffff 21 800] ------- [33:255 -1:255 29 0] [0x2 2 1 [0 0] [29 4]] (REQUEST)
r 1.010776860 _34_ RTR  --- 0 AODV 48 [0 ffffffff 21 800] ------- [33:255 -1:255 29 0] [0x2 2 1 [0 0] [29 4]] (REQUEST)
r 1.010776877 _7_ RTR  --- 0 AODV 48 [0 ffffffff 21 800] ------- [33:255 -1:255 29 0] [0x2 2 1 [0 0] [29 4]] (REQUEST)
r 1.010776918 _11_ RTR  --- 0 AODV 48 [0 ffffffff 21 800] ------- [33:255 -1:255 29 0] [0x2 2 1 [0 0] [29 4]] (REQUEST)
r 1.010776965 _27_ RTR  --- 0 AODV 48 [0 ffffffff 21 800] ------- [33:255 -1:255 29 0] [0x2 2 1 [0 0] [29 4]] (REQUEST)
r 1.010776971 _23_ RTR  --- 0 AODV 48 [0 ffffffff 21 800] ------- [33:255 -1:255 29 0] [0x2 2 1 [0 0] [29 4]] (REQUEST)
r 1.010776978 _30_ RTR  --- 0 AODV 48 [0 ffffffff 21 800] ------- [33:255 -1:255 29 0] [0x2 2 1 [0 0] [29 4]] (REQUEST)
r 1.010776979 _24_ RTR  --- 0 AODV 48 [0 ffffffff 21 800] ------- [33:255 -1:255 29 0] [0x2 2 1 [0 0] [29 4]] (REQUEST)
r 1.010776996 _12_ RTR  --- 0 AODV 48 [0 ffffffff 21 800] ------- [33:255 -1:255 29 0] [0x2 2 1 [0 0] [29 4]] (REQUEST)
r 1.010777033 _21_ RTR  --- 0 AODV 48 [0 ffffffff 21 800] ------- [33:255 -1:255 29 0] [0x2 2 1 [0 0] [29 4]] (REQUEST)
r 1.010777051 _20_ RTR  --- 0 AODV 48 [0 ffffffff 21 800] ------- [33:255 -1:255 29 0] [0x2 2 1 [0 0] [29 4]] (REQUEST)
r 1.010777121 _38_ RTR  --- 0 AODV 48 [0 ffffffff 21 800] ------- [33:255 -1:255 29 0] [0x2 2 1 [0 0] [29 4]] (REQUEST)
r 1.010777131 _1_ RTR  --- 0 AODV 48 [0 ffffffff 21 800] ------- [33:255 -1:255 29 0] [0x2 2 1 [0 0] [29 4]] (REQUEST)
r 1.010777143 _3_ RTR  --- 0 AODV 48 [0 ffffffff 21 800] ------- [33:255 -1:255 29 0] [0x2 2 1 [0 0] [29 4]] (REQUEST)
r 1.010777209 _5_ RTR  --- 0 AODV 48 [0 ffffffff 21 800] ------- [33:255 -1:255 29 0] [0x2 2 1 [0 0] [29 4]] (REQUEST)
r 1.010777211 _39_ RTR  --- 0 AODV 48 [0 ffffffff 21 800] ------- [33:255 -1:255 29 0] [0x2 2 1 [0 0] [29 4]] (REQUEST)
r 1.010777223 _13_ RTR  --- 0 AODV 48 [0 ffffffff 21 800] ------- [33:255 -1:255 29 0] [0x2 2 1 [0 0] [29 4]] (REQUEST)
r 1.010777239 _8_ RTR  --- 0 AODV 48 [0 ffffffff 21 800] ------- [33:255 -1:255 29 0] [0x2 2 1 [0 0] [29 4]] (REQUEST)
r 1.010777243 _2_ RTR  --- 0 AODV 48 [0 ffffffff 21 800] ------- [33:255 -1:255 29 0] [0x2 2 1 [0 0] [29 4]] (REQUEST)
s 1.010890905 _4_ RTR  --- 0 AODV 48 [0 ffffffff 5 800] ------- [4:255 -1:255 28 0] [0x2 3 1 [0 0] [29 4]] (REQUEST)
r 1.011735349 _35_ RTR  --- 0 AODV 48 [0 ffffffff 27 800] ------- [39:255 -1:255 28 0] [0x2 3 1 [0 0] [29 4]] (REQUEST)
r 1.011735457 _23_ RTR  --- 0 AODV 48 [0 ffffffff 27 800] ------- [39:255 -1:255 28 0] [0x2 3 1 [0 0] [29 4]] (REQUEST)
r 1.011735485 _1_ RTR  --- 0 AODV 48 [0 ffffffff 27 800] ------- [39:255 -1:255 28 0] [0x2 3 1 [0 0] [29 4]] (REQUEST)
r 1.011735524 _24_ RTR  --- 0 AODV 48 [0 ffffffff 27 800] ------- [39:255 -1:255 28 0] [0x2 3 1 [0 0] [29 4]] (REQUEST)
r 1.011735541 _12_ RTR  --- 0 AODV 48 [0 ffffffff 27 800] ------- [39:255 -1:255 28 0] [0x2 3 1 [0 0] [29 4]] (REQUEST)